 Entering Gaussian System, Link 0=g16
 Initial command:
 /apps/gaussian/g16c01/g16/l1.exe "/jobfs/124225035.gadi-pbs/Gau-1882730.inp" -scrdir="/jobfs/124225035.gadi-pbs/"
 Entering Link 1 = /apps/gaussian/g16c01/g16/l1.exe PID=   1882731.
  
 Copyright (c) 1988-2019, Gaussian, Inc.  All Rights Reserved.
  
 This is part of the Gaussian(R) 16 program.  It is based on
 the Gaussian(R) 09 system (copyright 2009, Gaussian, Inc.),
 the Gaussian(R) 03 system (copyright 2003, Gaussian, Inc.),
 the Gaussian(R) 98 system (copyright 1998, Gaussian, Inc.),
 the Gaussian(R) 94 system (copyright 1995, Gaussian, Inc.),
 the Gaussian 92(TM) system (copyright 1992, Gaussian, Inc.),
 the Gaussian 90(TM) system (copyright 1990, Gaussian, Inc.),
 the Gaussian 88(TM) system (copyright 1988, Gaussian, Inc.),
 the Gaussian 86(TM) system (copyright 1986, Carnegie Mellon
 University), and the Gaussian 82(TM) system (copyright 1983,
 Carnegie Mellon University). Gaussian is a federally registered
 trademark of Gaussian, Inc.
  
 This software contains proprietary and confidential information,
 including trade secrets, belonging to Gaussian, Inc.
  
 This software is provided under written license and may be
 used, copied, transmitted, or stored only in accord with that
 written license.
  
 The following legend is applicable only to US Government
 contracts under FAR:
  
                    RESTRICTED RIGHTS LEGEND
  
 Use, reproduction and disclosure by the US Government is
 subject to restrictions as set forth in subparagraphs (a)
 and (c) of the Commercial Computer Software - Restricted
 Rights clause in FAR 52.227-19.
  
 Gaussian, Inc.
 340 Quinnipiac St., Bldg. 40, Wallingford CT 06492
  
  
 ---------------------------------------------------------------
 Warning -- This program may not be used in any manner that
 competes with the business of Gaussian, Inc. or will provide
 assistance to any competitor of Gaussian, Inc.  The licensee
 of this program is prohibited from giving any competitor of
 Gaussian, Inc. access to this program.  By using this program,
 the user acknowledges that Gaussian, Inc. is engaged in the
 business of creating and licensing software in the field of
 computational chemistry and represents and warrants to the
 licensee that it is not a competitor of Gaussian, Inc. and that
 it will not use this program in any manner prohibited above.
 ---------------------------------------------------------------
  

 Cite this work as:
 Gaussian 16, Revision C.01,
 M. J. Frisch, G. W. Trucks, H. B. Schlegel, G. E. Scuseria, 
 M. A. Robb, J. R. Cheeseman, G. Scalmani, V. Barone, 
 G. A. Petersson, H. Nakatsuji, X. Li, M. Caricato, A. V. Marenich, 
 J. Bloino, B. G. Janesko, R. Gomperts, B. Mennucci, H. P. Hratchian, 
 J. V. Ortiz, A. F. Izmaylov, J. L. Sonnenberg, D. Williams-Young, 
 F. Ding, F. Lipparini, F. Egidi, J. Goings, B. Peng, A. Petrone, 
 T. Henderson, D. Ranasinghe, V. G. Zakrzewski, J. Gao, N. Rega, 
 G. Zheng, W. Liang, M. Hada, M. Ehara, K. Toyota, R. Fukuda, 
 J. Hasegawa, M. Ishida, T. Nakajima, Y. Honda, O. Kitao, H. Nakai, 
 T. Vreven, K. Throssell, J. A. Montgomery, Jr., J. E. Peralta, 
 F. Ogliaro, M. J. Bearpark, J. J. Heyd, E. N. Brothers, K. N. Kudin, 
 V. N. Staroverov, T. A. Keith, R. Kobayashi, J. Normand, 
 K. Raghavachari, A. P. Rendell, J. C. Burant, S. S. Iyengar, 
 J. Tomasi, M. Cossi, J. M. Millam, M. Klene, C. Adamo, R. Cammi, 
 J. W. Ochterski, R. L. Martin, K. Morokuma, O. Farkas, 
 J. B. Foresman, and D. J. Fox, Gaussian, Inc., Wallingford CT, 2019.
 
 ******************************************
 Gaussian 16:  ES64L-G16RevC.01  3-Jul-2019
                 5-Sep-2024 
 ******************************************
 %chk=AMPA.a.Ba.CONF1.B3LYP.chk
 %nprocshared=48
 Will use up to   48 processors via shared memory.
 %mem=60000MB
 ----------------------------------------------------------------------
 #UM06/Def2TZVP Opt Freq(noraman) INT(grid=ultrafine) EmpiricalDispersi
 on=GD3 SCF=XQC Pop=NPA
 ----------------------------------------------------------------------
 1/18=20,19=15,26=4,38=1/1,3;
 2/9=110,12=2,17=6,18=5,40=1/2;
 3/5=44,7=101,11=2,25=1,30=1,71=1,74=-54,75=-5,116=2,124=31/1,2,3;
 4//1;
 5/5=2,8=3,13=1,38=5/2,8;
 6/7=2,8=2,9=2,10=2,28=1,40=-1/1,7;
 7//1,2,3,16;
 1/18=20,19=15,26=4/3(2);
 2/9=110/2;
 99//99;
 2/9=110/2;
 3/5=44,7=101,11=2,25=1,30=1,71=1,74=-54,75=-5,116=2,124=31/1,2,3;
 4/5=5,16=3,69=1/1;
 5/5=2,8=3,13=1,38=5/2,8;
 7//1,2,3,16;
 1/18=20,19=15,26=4/3(-5);
 2/9=110/2;
 6/7=2,8=2,9=2,10=2,19=2,28=1,40=-1/1,7;
 99/9=1/99;


 Symbolic Z-matrix:
 Charge =  1 Multiplicity = 1
 N                    -1.94493  -1.5996    0.21739 
 C                    -2.85483  -0.78582  -0.63219 
 P                    -2.22399   0.9141   -0.52577 
 O                    -0.75205   0.84404  -0.90825 
 O                    -2.38053   1.38147   0.90475 
 O                    -3.05987   1.77531  -1.56283 
 Ba                   -0.28633   0.23126   1.85694 
 H                    -3.56348   2.49735  -1.17091 
 H                    -1.1771   -1.95439  -0.34229 
 H                    -2.90799  -1.1358   -1.66389 
 H                    -3.85897  -0.80937  -0.21339 
 H                    -2.4368   -2.41016   0.57385 
 N                     1.74409   1.83625   0.42395 
 C                     2.77981   1.0153   -0.24098 
 P                     2.07551  -0.59052  -0.7048 
 O                     1.17322  -0.42629  -1.97171 
 O                     1.35933  -1.16572   0.47775 
 O                     3.33033  -1.40579  -1.19636 
 H                     3.19067  -2.01896  -1.92743 
 H                     1.06649   2.15064  -0.26669 
 H                     3.21472   1.48858  -1.12352 
 H                     3.58743   0.81526   0.4633 
 H                     2.17734   2.66893   0.80694 
 H                     0.30672   0.04211  -1.74181 
 

 GradGradGradGradGradGradGradGradGradGradGradGradGradGradGradGradGradGrad
 Berny optimization.
 Initialization pass.
                           ----------------------------
                           !    Initial Parameters    !
                           ! (Angstroms and Degrees)  !
 --------------------------                            --------------------------
 ! Name  Definition              Value          Derivative Info.                !
 --------------------------------------------------------------------------------
 ! R1    R(1,2)                  1.4873         estimate D2E/DX2                !
 ! R2    R(1,7)                  2.965          estimate D2E/DX2                !
 ! R3    R(1,9)                  1.0142         estimate D2E/DX2                !
 ! R4    R(1,12)                 1.0129         estimate D2E/DX2                !
 ! R5    R(2,3)                  1.8163         estimate D2E/DX2                !
 ! R6    R(2,10)                 1.0907         estimate D2E/DX2                !
 ! R7    R(2,11)                 1.0882         estimate D2E/DX2                !
 ! R8    R(3,4)                  1.5224         estimate D2E/DX2                !
 ! R9    R(3,5)                  1.5131         estimate D2E/DX2                !
 ! R10   R(3,6)                  1.5861         estimate D2E/DX2                !
 ! R11   R(3,7)                  3.1461         estimate D2E/DX2                !
 ! R12   R(4,7)                  2.8703         estimate D2E/DX2                !
 ! R13   R(5,7)                  2.572          estimate D2E/DX2                !
 ! R14   R(6,8)                  0.9636         estimate D2E/DX2                !
 ! R15   R(7,13)                 2.9584         estimate D2E/DX2                !
 ! R16   R(7,15)                 3.58           estimate D2E/DX2                !
 ! R17   R(7,17)                 2.5616         estimate D2E/DX2                !
 ! R18   R(13,14)                1.4795         estimate D2E/DX2                !
 ! R19   R(13,20)                1.0173         estimate D2E/DX2                !
 ! R20   R(13,23)                1.0138         estimate D2E/DX2                !
 ! R21   R(14,15)                1.8138         estimate D2E/DX2                !
 ! R22   R(14,21)                1.0918         estimate D2E/DX2                !
 ! R23   R(14,22)                1.0901         estimate D2E/DX2                !
 ! R24   R(15,16)                1.564          estimate D2E/DX2                !
 ! R25   R(15,17)                1.4974         estimate D2E/DX2                !
 ! R26   R(15,18)                1.5751         estimate D2E/DX2                !
 ! R27   R(16,24)                1.0115         estimate D2E/DX2                !
 ! R28   R(18,19)                0.9643         estimate D2E/DX2                !
 ! A1    A(2,1,7)              108.6774         estimate D2E/DX2                !
 ! A2    A(2,1,9)              109.8367         estimate D2E/DX2                !
 ! A3    A(2,1,12)             109.9866         estimate D2E/DX2                !
 ! A4    A(7,1,9)               95.6042         estimate D2E/DX2                !
 ! A5    A(7,1,12)             124.8322         estimate D2E/DX2                !
 ! A6    A(9,1,12)             106.3729         estimate D2E/DX2                !
 ! A7    A(1,2,3)              105.4353         estimate D2E/DX2                !
 ! A8    A(1,2,10)             113.2394         estimate D2E/DX2                !
 ! A9    A(1,2,11)             109.4411         estimate D2E/DX2                !
 ! A10   A(3,2,10)             111.8792         estimate D2E/DX2                !
 ! A11   A(3,2,11)             108.5529         estimate D2E/DX2                !
 ! A12   A(10,2,11)            108.1855         estimate D2E/DX2                !
 ! A13   A(2,3,4)              106.1411         estimate D2E/DX2                !
 ! A14   A(2,3,5)              107.9723         estimate D2E/DX2                !
 ! A15   A(2,3,6)              106.6678         estimate D2E/DX2                !
 ! A16   A(2,3,7)               93.1613         estimate D2E/DX2                !
 ! A17   A(4,3,5)              110.5953         estimate D2E/DX2                !
 ! A18   A(4,3,6)              111.7302         estimate D2E/DX2                !
 ! A19   A(5,3,6)              113.3238         estimate D2E/DX2                !
 ! A20   A(6,3,7)              159.6491         estimate D2E/DX2                !
 ! A21   A(3,6,8)              114.603          estimate D2E/DX2                !
 ! A22   A(1,7,3)               51.002          estimate D2E/DX2                !
 ! A23   A(1,7,4)               60.5506         estimate D2E/DX2                !
 ! A24   A(1,7,5)               67.4157         estimate D2E/DX2                !
 ! A25   A(1,7,13)             116.8133         estimate D2E/DX2                !
 ! A26   A(1,7,15)              80.3062         estimate D2E/DX2                !
 ! A27   A(1,7,17)              74.0321         estimate D2E/DX2                !
 ! A28   A(3,7,13)              86.4515         estimate D2E/DX2                !
 ! A29   A(3,7,15)              85.0785         estimate D2E/DX2                !
 ! A30   A(3,7,17)              96.1004         estimate D2E/DX2                !
 ! A31   A(4,7,5)               54.2512         estimate D2E/DX2                !
 ! A32   A(4,7,13)              61.8939         estimate D2E/DX2                !
 ! A33   A(4,7,15)              57.7701         estimate D2E/DX2                !
 ! A34   A(4,7,17)              72.6611         estimate D2E/DX2                !
 ! A35   A(5,7,13)              97.8677         estimate D2E/DX2                !
 ! A36   A(5,7,15)             112.0193         estimate D2E/DX2                !
 ! A37   A(5,7,17)             124.5858         estimate D2E/DX2                !
 ! A38   A(13,7,15)             47.5557         estimate D2E/DX2                !
 ! A39   A(13,7,17)             66.0558         estimate D2E/DX2                !
 ! A40   A(7,13,14)            113.399          estimate D2E/DX2                !
 ! A41   A(7,13,20)             92.2557         estimate D2E/DX2                !
 ! A42   A(7,13,23)            123.7744         estimate D2E/DX2                !
 ! A43   A(14,13,20)           109.4303         estimate D2E/DX2                !
 ! A44   A(14,13,23)           109.0494         estimate D2E/DX2                !
 ! A45   A(20,13,23)           106.6951         estimate D2E/DX2                !
 ! A46   A(13,14,15)           109.5339         estimate D2E/DX2                !
 ! A47   A(13,14,21)           113.68           estimate D2E/DX2                !
 ! A48   A(13,14,22)           109.2763         estimate D2E/DX2                !
 ! A49   A(15,14,21)           109.375          estimate D2E/DX2                !
 ! A50   A(15,14,22)           106.8837         estimate D2E/DX2                !
 ! A51   A(21,14,22)           107.8591         estimate D2E/DX2                !
 ! A52   A(7,15,14)             82.5282         estimate D2E/DX2                !
 ! A53   A(7,15,16)            100.0745         estimate D2E/DX2                !
 ! A54   A(7,15,18)            150.1965         estimate D2E/DX2                !
 ! A55   A(14,15,16)           109.7666         estimate D2E/DX2                !
 ! A56   A(14,15,17)           108.8961         estimate D2E/DX2                !
 ! A57   A(14,15,18)           103.2214         estimate D2E/DX2                !
 ! A58   A(16,15,17)           113.8363         estimate D2E/DX2                !
 ! A59   A(16,15,18)           105.1386         estimate D2E/DX2                !
 ! A60   A(17,15,18)           115.3836         estimate D2E/DX2                !
 ! A61   A(15,16,24)           111.0223         estimate D2E/DX2                !
 ! A62   A(15,18,19)           116.7653         estimate D2E/DX2                !
 ! D1    D(7,1,2,3)             12.9782         estimate D2E/DX2                !
 ! D2    D(7,1,2,10)           135.614          estimate D2E/DX2                !
 ! D3    D(7,1,2,11)          -103.6052         estimate D2E/DX2                !
 ! D4    D(9,1,2,3)            -90.4092         estimate D2E/DX2                !
 ! D5    D(9,1,2,10)            32.2266         estimate D2E/DX2                !
 ! D6    D(9,1,2,11)           153.0074         estimate D2E/DX2                !
 ! D7    D(12,1,2,3)           152.842          estimate D2E/DX2                !
 ! D8    D(12,1,2,10)          -84.5222         estimate D2E/DX2                !
 ! D9    D(12,1,2,11)           36.2586         estimate D2E/DX2                !
 ! D10   D(2,1,7,3)             -9.2541         estimate D2E/DX2                !
 ! D11   D(2,1,7,4)            -42.4229         estimate D2E/DX2                !
 ! D12   D(2,1,7,5)             18.118          estimate D2E/DX2                !
 ! D13   D(2,1,7,13)           -69.3538         estimate D2E/DX2                !
 ! D14   D(2,1,7,15)          -100.7629         estimate D2E/DX2                !
 ! D15   D(2,1,7,17)          -121.2118         estimate D2E/DX2                !
 ! D16   D(9,1,7,3)            103.8932         estimate D2E/DX2                !
 ! D17   D(9,1,7,4)             70.7244         estimate D2E/DX2                !
 ! D18   D(9,1,7,5)            131.2652         estimate D2E/DX2                !
 ! D19   D(9,1,7,13)            43.7935         estimate D2E/DX2                !
 ! D20   D(9,1,7,15)            12.3843         estimate D2E/DX2                !
 ! D21   D(9,1,7,17)            -8.0646         estimate D2E/DX2                !
 ! D22   D(12,1,7,3)          -141.6915         estimate D2E/DX2                !
 ! D23   D(12,1,7,4)          -174.8603         estimate D2E/DX2                !
 ! D24   D(12,1,7,5)          -114.3194         estimate D2E/DX2                !
 ! D25   D(12,1,7,13)          158.2088         estimate D2E/DX2                !
 ! D26   D(12,1,7,15)          126.7997         estimate D2E/DX2                !
 ! D27   D(12,1,7,17)          106.3508         estimate D2E/DX2                !
 ! D28   D(1,2,3,4)             53.7769         estimate D2E/DX2                !
 ! D29   D(1,2,3,5)            -64.8346         estimate D2E/DX2                !
 ! D30   D(1,2,3,6)            173.0508         estimate D2E/DX2                !
 ! D31   D(1,2,3,7)            -11.5843         estimate D2E/DX2                !
 ! D32   D(10,2,3,4)           -69.7267         estimate D2E/DX2                !
 ! D33   D(10,2,3,5)           171.6618         estimate D2E/DX2                !
 ! D34   D(10,2,3,6)            49.5472         estimate D2E/DX2                !
 ! D35   D(10,2,3,7)          -135.0879         estimate D2E/DX2                !
 ! D36   D(11,2,3,4)           170.9634         estimate D2E/DX2                !
 ! D37   D(11,2,3,5)            52.3519         estimate D2E/DX2                !
 ! D38   D(11,2,3,6)           -69.7628         estimate D2E/DX2                !
 ! D39   D(11,2,3,7)           105.6022         estimate D2E/DX2                !
 ! D40   D(2,3,6,8)            119.1441         estimate D2E/DX2                !
 ! D41   D(4,3,6,8)           -125.2788         estimate D2E/DX2                !
 ! D42   D(5,3,6,8)              0.4689         estimate D2E/DX2                !
 ! D43   D(7,3,6,8)            -47.4404         estimate D2E/DX2                !
 ! D44   D(2,3,7,1)              7.1769         estimate D2E/DX2                !
 ! D45   D(2,3,7,13)           136.3562         estimate D2E/DX2                !
 ! D46   D(2,3,7,15)            88.681          estimate D2E/DX2                !
 ! D47   D(2,3,7,17)            70.9114         estimate D2E/DX2                !
 ! D48   D(6,3,7,1)            174.3151         estimate D2E/DX2                !
 ! D49   D(6,3,7,13)           -56.5056         estimate D2E/DX2                !
 ! D50   D(6,3,7,15)          -104.1809         estimate D2E/DX2                !
 ! D51   D(6,3,7,17)          -121.9505         estimate D2E/DX2                !
 ! D52   D(1,7,13,14)          -62.4618         estimate D2E/DX2                !
 ! D53   D(1,7,13,20)           49.8592         estimate D2E/DX2                !
 ! D54   D(1,7,13,23)          161.7117         estimate D2E/DX2                !
 ! D55   D(3,7,13,14)         -104.9172         estimate D2E/DX2                !
 ! D56   D(3,7,13,20)            7.4037         estimate D2E/DX2                !
 ! D57   D(3,7,13,23)          119.2562         estimate D2E/DX2                !
 ! D58   D(4,7,13,14)          -89.0209         estimate D2E/DX2                !
 ! D59   D(4,7,13,20)           23.3001         estimate D2E/DX2                !
 ! D60   D(4,7,13,23)          135.1525         estimate D2E/DX2                !
 ! D61   D(5,7,13,14)         -131.0816         estimate D2E/DX2                !
 ! D62   D(5,7,13,20)          -18.7606         estimate D2E/DX2                !
 ! D63   D(5,7,13,23)           93.0918         estimate D2E/DX2                !
 ! D64   D(15,7,13,14)         -18.3437         estimate D2E/DX2                !
 ! D65   D(15,7,13,20)          93.9772         estimate D2E/DX2                !
 ! D66   D(15,7,13,23)        -154.1703         estimate D2E/DX2                !
 ! D67   D(17,7,13,14)          -6.6357         estimate D2E/DX2                !
 ! D68   D(17,7,13,20)         105.6853         estimate D2E/DX2                !
 ! D69   D(17,7,13,23)        -142.4622         estimate D2E/DX2                !
 ! D70   D(1,7,15,14)          154.6741         estimate D2E/DX2                !
 ! D71   D(1,7,15,16)           45.822          estimate D2E/DX2                !
 ! D72   D(1,7,15,18)         -101.7264         estimate D2E/DX2                !
 ! D73   D(3,7,15,14)          103.4342         estimate D2E/DX2                !
 ! D74   D(3,7,15,16)           -5.4179         estimate D2E/DX2                !
 ! D75   D(3,7,15,18)         -152.9663         estimate D2E/DX2                !
 ! D76   D(4,7,15,14)           93.4858         estimate D2E/DX2                !
 ! D77   D(4,7,15,16)          -15.3663         estimate D2E/DX2                !
 ! D78   D(4,7,15,18)         -162.9148         estimate D2E/DX2                !
 ! D79   D(5,7,15,14)           93.9716         estimate D2E/DX2                !
 ! D80   D(5,7,15,16)          -14.8805         estimate D2E/DX2                !
 ! D81   D(5,7,15,18)         -162.429          estimate D2E/DX2                !
 ! D82   D(13,7,15,14)          13.7456         estimate D2E/DX2                !
 ! D83   D(13,7,15,16)         -95.1064         estimate D2E/DX2                !
 ! D84   D(13,7,15,18)         117.3451         estimate D2E/DX2                !
 ! D85   D(7,13,14,15)          29.1027         estimate D2E/DX2                !
 ! D86   D(7,13,14,21)         151.784          estimate D2E/DX2                !
 ! D87   D(7,13,14,22)         -87.6762         estimate D2E/DX2                !
 ! D88   D(20,13,14,15)        -72.3242         estimate D2E/DX2                !
 ! D89   D(20,13,14,21)         50.357          estimate D2E/DX2                !
 ! D90   D(20,13,14,22)        170.8969         estimate D2E/DX2                !
 ! D91   D(23,13,14,15)        171.3113         estimate D2E/DX2                !
 ! D92   D(23,13,14,21)        -66.0074         estimate D2E/DX2                !
 ! D93   D(23,13,14,22)         54.5324         estimate D2E/DX2                !
 ! D94   D(13,14,15,7)         -21.8411         estimate D2E/DX2                !
 ! D95   D(13,14,15,16)         76.2265         estimate D2E/DX2                !
 ! D96   D(13,14,15,17)        -49.0063         estimate D2E/DX2                !
 ! D97   D(13,14,15,18)       -172.0892         estimate D2E/DX2                !
 ! D98   D(21,14,15,7)        -147.0462         estimate D2E/DX2                !
 ! D99   D(21,14,15,16)        -48.9785         estimate D2E/DX2                !
 ! D100  D(21,14,15,17)       -174.2113         estimate D2E/DX2                !
 ! D101  D(21,14,15,18)         62.7057         estimate D2E/DX2                !
 ! D102  D(22,14,15,7)          96.4366         estimate D2E/DX2                !
 ! D103  D(22,14,15,16)       -165.4958         estimate D2E/DX2                !
 ! D104  D(22,14,15,17)         69.2714         estimate D2E/DX2                !
 ! D105  D(22,14,15,18)        -53.8115         estimate D2E/DX2                !
 ! D106  D(7,15,16,24)          12.6095         estimate D2E/DX2                !
 ! D107  D(14,15,16,24)        -73.0033         estimate D2E/DX2                !
 ! D108  D(17,15,16,24)         49.34           estimate D2E/DX2                !
 ! D109  D(18,15,16,24)        176.5708         estimate D2E/DX2                !
 ! D110  D(7,15,18,19)         117.0948         estimate D2E/DX2                !
 ! D111  D(14,15,18,19)       -144.7754         estimate D2E/DX2                !
 ! D112  D(16,15,18,19)        -29.7228         estimate D2E/DX2                !
 ! D113  D(17,15,18,19)         96.559          estimate D2E/DX2                !
 --------------------------------------------------------------------------------
 Trust Radius=3.00D-01 FncErr=1.00D-07 GrdErr=1.00D-06 EigMax=2.50D+02 EigMin=1.00D-04
 Number of steps in this run=    144 maximum allowed number of steps=    144.
 GradGradGradGradGradGradGradGradGradGradGradGradGradGradGradGradGradGrad

                          Input orientation:                          
 ---------------------------------------------------------------------
 Center     Atomic      Atomic             Coordinates (Angstroms)
 Number     Number       Type             X           Y           Z
 ---------------------------------------------------------------------
      1          7           0       -1.944932   -1.599604    0.217388
      2          6           0       -2.854827   -0.785821   -0.632193
      3         15           0       -2.223994    0.914102   -0.525770
      4          8           0       -0.752051    0.844038   -0.908247
      5          8           0       -2.380532    1.381466    0.904755
      6          8           0       -3.059870    1.775308   -1.562830
      7         56           0       -0.286333    0.231257    1.856936
      8          1           0       -3.563476    2.497352   -1.170909
      9          1           0       -1.177104   -1.954393   -0.342290
     10          1           0       -2.907993   -1.135798   -1.663887
     11          1           0       -3.858968   -0.809372   -0.213390
     12          1           0       -2.436798   -2.410163    0.573847
     13          7           0        1.744090    1.836249    0.423947
     14          6           0        2.779813    1.015302   -0.240978
     15         15           0        2.075511   -0.590525   -0.704802
     16          8           0        1.173218   -0.426293   -1.971712
     17          8           0        1.359328   -1.165719    0.477748
     18          8           0        3.330327   -1.405792   -1.196363
     19          1           0        3.190669   -2.018959   -1.927430
     20          1           0        1.066491    2.150643   -0.266688
     21          1           0        3.214722    1.488576   -1.123516
     22          1           0        3.587427    0.815260    0.463299
     23          1           0        2.177338    2.668932    0.806939
     24          1           0        0.306716    0.042105   -1.741810
 ---------------------------------------------------------------------
                    Distance matrix (angstroms):
                    1          2          3          4          5
     1  N    0.000000
     2  C    1.487259   0.000000
     3  P    2.636072   1.816319   0.000000
     4  O    2.943027   2.674755   1.522437   0.000000
     5  O    3.090146   2.698944   1.513054   2.495547   0.000000
     6  O    3.975210   2.732675   1.586146   2.573280   2.589514
     7  Ba   2.964982   3.718517   3.146124   2.870301   2.572022
     8  H    4.618669   3.401709   2.171887   3.272086   2.636842
     9  H    1.014236   2.065032   3.059070   2.886554   3.759165
    10  H    2.163747   1.090736   2.442387   3.023050   3.634936
    11  H    2.115082   1.088233   2.396055   3.587412   2.869807
    12  H    1.012917   2.065857   3.507874   3.952822   3.806457
    13  N    5.045457   5.398215   4.183063   2.998324   4.177381
    14  C    5.419506   5.928428   5.012927   3.598422   5.298673
    15  P    4.246485   4.934738   4.558695   3.177179   5.131836
    16  O    3.986436   4.260131   3.927907   2.539952   4.916420
    17  O    3.342780   4.374402   4.262969   3.227697   4.545002
    18  O    5.464853   6.241697   6.056574   4.670177   6.693087
    19  H    5.581263   6.304465   6.315542   4.978004   7.114945
    20  H    4.833979   4.912551   3.524693   2.329359   3.721005
    21  H    6.160918   6.500285   5.501541   4.024557   5.952497
    22  H    6.041443   6.728016   5.895816   4.551158   6.010991
    23  H    5.963311   6.271292   4.922120   3.854013   4.737226
    24  H    3.406404   3.451386   2.940005   1.568092   4.002436
                    6          7          8          9         10
     6  O    0.000000
     7  Ba   4.665983   0.000000
     8  H    0.963622   5.004267   0.000000
     9  H    4.352608   3.226010   5.118536   0.000000
    10  H    2.916817   4.597623   3.724576   2.326520   0.000000
    11  H    3.023262   4.258272   3.455225   2.918919   1.764894
    12  H    4.740440   3.639769   5.328909   1.622918   2.617917
    13  N    5.198945   2.958391   5.581297   4.846593   5.902033
    14  C    6.035462   3.797002   6.580164   4.948388   6.245242
    15  P    5.718873   3.579963   6.445960   3.545568   5.104163
    16  O    4.788869   4.149844   5.623633   3.242547   4.153846
    17  O    5.687083   2.561621   6.353751   2.779921   4.774676
    18  O    7.147609   5.008273   7.922102   4.620318   6.261639
    19  H    7.321109   5.610209   8.160138   4.646964   6.167909
    20  H    4.341396   3.166063   4.730160   4.678757   5.343163
    21  H    6.296484   4.766690   6.853016   5.634934   6.683336
    22  H    7.015230   4.158041   7.525655   5.569624   7.107886
    23  H    5.817449   3.621385   6.074393   5.826503   6.814803
    24  H    3.790769   3.652185   4.618717   2.854187   3.424600
                   11         12         13         14         15
    11  H    0.000000
    12  H    2.281413   0.000000
    13  N    6.228946   5.961066   0.000000
    14  C    6.885028   6.293710   1.479459   0.000000
    15  P    5.958810   5.030602   2.696877   1.813796   0.000000
    16  O    5.344281   4.842295   3.344275   2.766729   1.564022
    17  O    5.275915   3.996054   3.027003   2.700222   1.497394
    18  O    7.280654   6.115729   3.956309   2.660362   1.575074
    19  H    7.355163   6.170722   4.741750   3.495664   2.186051
    20  H    5.746711   5.812099   1.017330   2.055512   2.953653
    21  H    7.493062   7.072544   2.162932   1.091791   2.407444
    22  H    7.651545   6.834242   2.107572   1.090075   2.372042
    23  H    7.041069   6.865987   1.013778   2.048315   3.594410
    24  H    4.518186   4.347730   3.158401   3.052183   2.145749
                   16         17         18         19         20
    16  O    0.000000
    17  O    2.565393   0.000000
    18  O    2.492730   2.597137   0.000000
    19  H    2.570730   3.141132   0.964332   0.000000
    20  H    3.091779   3.411480   4.317115   4.965459   0.000000
    21  H    2.924705   3.612730   2.897592   3.598564   2.405698
    22  H    3.646798   2.981427   2.784537   3.729048   2.944698
    23  H    4.278969   3.934724   4.684653   5.520863   1.629502
    24  H    1.011473   2.737383   3.396490   3.549595   2.683128
                   21         22         23         24
    21  H    0.000000
    22  H    1.763589   0.000000
    23  H    2.489189   2.354260   0.000000
    24  H    3.306216   4.027820   4.110421   0.000000
 Stoichiometry    C2H11BaN2O6P2(1+)
 Framework group  C1[X(C2H11BaN2O6P2)]
 Deg. of freedom    66
 Full point group                 C1      NOp   1
 Largest Abelian subgroup         C1      NOp   1
 Largest concise Abelian subgroup C1      NOp   1
                         Standard orientation:                         
 ---------------------------------------------------------------------
 Center     Atomic      Atomic             Coordinates (Angstroms)
 Number     Number       Type             X           Y           Z
 ---------------------------------------------------------------------
      1          7           0        1.410809    0.410199    2.066932
      2          6           0        2.357875    1.309898    1.355914
      3         15           0        2.087730    0.995810   -0.412527
      4          8           0        0.596337    1.184868   -0.652982
      5          8           0        2.496519   -0.432157   -0.700860
      6          8           0        2.950335    2.067560   -1.201908
      7         56           0        0.342158   -1.564657    0.130686
      8          1           0        3.627039    1.693215   -1.776803
      9          1           0        0.529131    0.888364    2.217517
     10          1           0        2.222268    2.362612    1.607128
     11          1           0        3.379570    1.030134    1.605158
     12          1           0        1.772698    0.182651    2.985223
     13          7           0       -1.487265   -0.534676   -1.953642
     14          6           0       -2.733032    0.046640   -1.406892
     15         15           0       -2.414196    0.716756    0.248144
     16          8           0       -1.649534    2.075997    0.130159
     17          8           0       -1.692555   -0.315184    1.058405
     18          8           0       -3.852234    1.097376    0.765864
     19          1           0       -3.920312    1.883787    1.319814
     20          1           0       -0.845622    0.214173   -2.203601
     21          1           0       -3.166017    0.826663   -2.036253
     22          1           0       -3.477398   -0.741301   -1.291419
     23          1           0       -1.702420   -1.031976   -2.810466
     24          1           0       -0.687620    1.928436   -0.145564
 ---------------------------------------------------------------------
 Rotational constants (GHZ):           0.5716845           0.3438503           0.2803688
 Standard basis: def2TZVP (5D, 7F)
 There are   556 symmetry adapted cartesian basis functions of A   symmetry.
 There are   490 symmetry adapted basis functions of A   symmetry.
   490 basis functions,   804 primitive gaussians,   556 cartesian basis functions
    62 alpha electrons       62 beta electrons
       nuclear repulsion energy      1258.5498132207 Hartrees.
 NAtoms=   24 NActive=   24 NUniq=   24 SFac= 1.00D+00 NAtFMM=   60 NAOKFM=F Big=F
 Integral buffers will be    131072 words long.
 Raffenetti 2 integral format.
 Two-electron integral symmetry is turned on.
 Nuclear repulsion after empirical dispersion term =     1258.5460633841 Hartrees.
 One-electron integrals computed using PRISM.
   1 Symmetry operations used in ECPInt.
 ECPInt:  NShTT=   18915 NPrTT=   58305 LenC2=   17315 LenP2D=   39307.
 LDataN:  DoStor=T MaxTD1= 7 Len=  274
 NBasis=   490 RedAO= T EigKep=  4.79D-04  NBF=   490
 NBsUse=   490 1.00D-06 EigRej= -1.00D+00 NBFU=   490
 Defaulting to unpruned grid for atomic number  56.
 ExpMin= 1.63D-02 ExpMax= 5.24D+04 ExpMxC= 1.79D+03 IAcc=3 IRadAn=         5 AccDes= 0.00D+00
 Harris functional with IExCor= 1009 and IRadAn=       5 diagonalized for initial guess.
 HarFok:  IExCor= 1009 AccDes= 0.00D+00 IRadAn=         5 IDoV= 1 UseB2=F ITyADJ=14
 ICtDFT=  3500011 ScaDFX=  1.000000  1.000000  1.000000  1.000000
 Defaulting to unpruned grid for atomic number  56.
 FoFCou: FMM=F IPFlag=           0 FMFlag=      100000 FMFlg1=           0
         NFxFlg=           0 DoJE=T BraDBF=F KetDBF=T FulRan=T
         wScrn=  0.000000 ICntrl=       500 IOpCl=  0 I1Cent=   200000004 NGrid=           0
         NMat0=    1 NMatS0=      1 NMatT0=    0 NMatD0=    1 NMtDS0=    0 NMtDT0=    0
 Petite list used in FoFCou.
 Initial guess <Sx>= 0.0000 <Sy>= 0.0000 <Sz>= 0.0000 <S**2>=-0.0000 S=-0.0000
 Requested convergence on RMS density matrix=1.00D-08 within  32 cycles.
 Requested convergence on MAX density matrix=1.00D-06.
 Requested convergence on             energy=1.00D-06.
 No special actions if energy rises.
 Defaulting to unpruned grid for atomic number  56.
 Defaulting to unpruned grid for atomic number  56.
 Defaulting to unpruned grid for atomic number  56.
 Defaulting to unpruned grid for atomic number  56.
 Defaulting to unpruned grid for atomic number  56.
 Defaulting to unpruned grid for atomic number  56.
 Defaulting to unpruned grid for atomic number  56.
 Defaulting to unpruned grid for atomic number  56.
 Defaulting to unpruned grid for atomic number  56.
 Defaulting to unpruned grid for atomic number  56.
 Defaulting to unpruned grid for atomic number  56.
 Defaulting to unpruned grid for atomic number  56.
 Defaulting to unpruned grid for atomic number  56.
 Defaulting to unpruned grid for atomic number  56.
 Defaulting to unpruned grid for atomic number  56.
 Defaulting to unpruned grid for atomic number  56.
 Defaulting to unpruned grid for atomic number  56.
 Defaulting to unpruned grid for atomic number  56.
 Defaulting to unpruned grid for atomic number  56.
 Defaulting to unpruned grid for atomic number  56.
 Defaulting to unpruned grid for atomic number  56.
 Defaulting to unpruned grid for atomic number  56.
 Defaulting to unpruned grid for atomic number  56.
 Defaulting to unpruned grid for atomic number  56.
 Defaulting to unpruned grid for atomic number  56.
 Defaulting to unpruned grid for atomic number  56.
 Defaulting to unpruned grid for atomic number  56.
 Defaulting to unpruned grid for atomic number  56.
 Defaulting to unpruned grid for atomic number  56.
 Defaulting to unpruned grid for atomic number  56.
 Defaulting to unpruned grid for atomic number  56.
 Defaulting to unpruned grid for atomic number  56.
 Defaulting to unpruned grid for atomic number  56.
 Defaulting to unpruned grid for atomic number  56.
 Defaulting to unpruned grid for atomic number  56.
 Defaulting to unpruned grid for atomic number  56.
 Defaulting to unpruned grid for atomic number  56.
 Defaulting to unpruned grid for atomic number  56.
 Defaulting to unpruned grid for atomic number  56.
 Defaulting to unpruned grid for atomic number  56.
 Defaulting to unpruned grid for atomic number  56.
 Defaulting to unpruned grid for atomic number  56.
 Defaulting to unpruned grid for atomic number  56.
 Defaulting to unpruned grid for atomic number  56.
 Defaulting to unpruned grid for atomic number  56.
 Defaulting to unpruned grid for atomic number  56.
 Defaulting to unpruned grid for atomic number  56.
 Defaulting to unpruned grid for atomic number  56.
 SCF Done:  E(UM06) =  -1352.01596221     A.U. after   12 cycles
            NFock= 12  Conv=0.99D-08     -V/T= 2.0165
 <Sx>= 0.0000 <Sy>= 0.0000 <Sz>= 0.0000 <S**2>=-0.0000 S=-0.0000
 <L.S>= 0.000000000000E+00
 Annihilation of the first spin contaminant:
 S**2 before annihilation    -0.0000,   after    -0.0000
 QCSCF skips out because SCF is already converged.

 **********************************************************************

            Population analysis using the SCF Density.

 **********************************************************************

 Orbital symmetries:
 Alpha Orbitals:
       Occupied  (A) (A) (A) (A) (A) (A) (A) (A) (A) (A) (A) (A)
                 (A) (A) (A) (A) (A) (A) (A) (A) (A) (A) (A) (A)
                 (A) (A) (A) (A) (A) (A) (A) (A) (A) (A) (A) (A)
                 (A) (A) (A) (A) (A) (A) (A) (A) (A) (A) (A) (A)
                 (A) (A) (A) (A) (A) (A) (A) (A) (A) (A) (A) (A)
                 (A) (A)
       Virtual   (A) (A) (A) (A) (A) (A) (A) (A) (A) (A) (A) (A)
                 (A) (A) (A) (A) (A) (A) (A) (A) (A) (A) (A) (A)
                 (A) (A) (A) (A) (A) (A) (A) (A) (A) (A) (A) (A)
                 (A) (A) (A) (A) (A) (A) (A) (A) (A) (A) (A) (A)
                 (A) (A) (A) (A) (A) (A) (A) (A) (A) (A) (A) (A)
                 (A) (A) (A) (A) (A) (A) (A) (A) (A) (A) (A) (A)
                 (A) (A) (A) (A) (A) (A) (A) (A) (A) (A) (A) (A)
                 (A) (A) (A) (A) (A) (A) (A) (A) (A) (A) (A) (A)
                 (A) (A) (A) (A) (A) (A) (A) (A) (A) (A) (A) (A)
                 (A) (A) (A) (A) (A) (A) (A) (A) (A) (A) (A) (A)
                 (A) (A) (A) (A) (A) (A) (A) (A) (A) (A) (A) (A)
                 (A) (A) (A) (A) (A) (A) (A) (A) (A) (A) (A) (A)
                 (A) (A) (A) (A) (A) (A) (A) (A) (A) (A) (A) (A)
                 (A) (A) (A) (A) (A) (A) (A) (A) (A) (A) (A) (A)
                 (A) (A) (A) (A) (A) (A) (A) (A) (A) (A) (A) (A)
                 (A) (A) (A) (A) (A) (A) (A) (A) (A) (A) (A) (A)
                 (A) (A) (A) (A) (A) (A) (A) (A) (A) (A) (A) (A)
                 (A) (A) (A) (A) (A) (A) (A) (A) (A) (A) (A) (A)
                 (A) (A) (A) (A) (A) (A) (A) (A) (A) (A) (A) (A)
                 (A) (A) (A) (A) (A) (A) (A) (A) (A) (A) (A) (A)
                 (A) (A) (A) (A) (A) (A) (A) (A) (A) (A) (A) (A)
                 (A) (A) (A) (A) (A) (A) (A) (A) (A) (A) (A) (A)
                 (A) (A) (A) (A) (A) (A) (A) (A) (A) (A) (A) (A)
                 (A) (A) (A) (A) (A) (A) (A) (A) (A) (A) (A) (A)
                 (A) (A) (A) (A) (A) (A) (A) (A) (A) (A) (A) (A)
                 (A) (A) (A) (A) (A) (A) (A) (A) (A) (A) (A) (A)
                 (A) (A) (A) (A) (A) (A) (A) (A) (A) (A) (A) (A)
                 (A) (A) (A) (A) (A) (A) (A) (A) (A) (A) (A) (A)
                 (A) (A) (A) (A) (A) (A) (A) (A) (A) (A) (A) (A)
                 (A) (A) (A) (A) (A) (A) (A) (A) (A) (A) (A) (A)
                 (A) (A) (A) (A) (A) (A) (A) (A) (A) (A) (A) (A)
                 (A) (A) (A) (A) (A) (A) (A) (A) (A) (A) (A) (A)
                 (A) (A) (A) (A) (A) (A) (A) (A) (A) (A) (A) (A)
                 (A) (A) (A) (A) (A) (A) (A) (A) (A) (A) (A) (A)
                 (A) (A) (A) (A) (A) (A) (A) (A) (A) (A) (A) (A)
                 (A) (A) (A) (A) (A) (A) (A) (A)
 Beta  Orbitals:
       Occupied  (A) (A) (A) (A) (A) (A) (A) (A) (A) (A) (A) (A)
                 (A) (A) (A) (A) (A) (A) (A) (A) (A) (A) (A) (A)
                 (A) (A) (A) (A) (A) (A) (A) (A) (A) (A) (A) (A)
                 (A) (A) (A) (A) (A) (A) (A) (A) (A) (A) (A) (A)
                 (A) (A) (A) (A) (A) (A) (A) (A) (A) (A) (A) (A)
                 (A) (A)
       Virtual   (A) (A) (A) (A) (A) (A) (A) (A) (A) (A) (A) (A)
                 (A) (A) (A) (A) (A) (A) (A) (A) (A) (A) (A) (A)
                 (A) (A) (A) (A) (A) (A) (A) (A) (A) (A) (A) (A)
                 (A) (A) (A) (A) (A) (A) (A) (A) (A) (A) (A) (A)
                 (A) (A) (A) (A) (A) (A) (A) (A) (A) (A) (A) (A)
                 (A) (A) (A) (A) (A) (A) (A) (A) (A) (A) (A) (A)
                 (A) (A) (A) (A) (A) (A) (A) (A) (A) (A) (A) (A)
                 (A) (A) (A) (A) (A) (A) (A) (A) (A) (A) (A) (A)
                 (A) (A) (A) (A) (A) (A) (A) (A) (A) (A) (A) (A)
                 (A) (A) (A) (A) (A) (A) (A) (A) (A) (A) (A) (A)
                 (A) (A) (A) (A) (A) (A) (A) (A) (A) (A) (A) (A)
                 (A) (A) (A) (A) (A) (A) (A) (A) (A) (A) (A) (A)
                 (A) (A) (A) (A) (A) (A) (A) (A) (A) (A) (A) (A)
                 (A) (A) (A) (A) (A) (A) (A) (A) (A) (A) (A) (A)
                 (A) (A) (A) (A) (A) (A) (A) (A) (A) (A) (A) (A)
                 (A) (A) (A) (A) (A) (A) (A) (A) (A) (A) (A) (A)
                 (A) (A) (A) (A) (A) (A) (A) (A) (A) (A) (A) (A)
                 (A) (A) (A) (A) (A) (A) (A) (A) (A) (A) (A) (A)
                 (A) (A) (A) (A) (A) (A) (A) (A) (A) (A) (A) (A)
                 (A) (A) (A) (A) (A) (A) (A) (A) (A) (A) (A) (A)
                 (A) (A) (A) (A) (A) (A) (A) (A) (A) (A) (A) (A)
                 (A) (A) (A) (A) (A) (A) (A) (A) (A) (A) (A) (A)
                 (A) (A) (A) (A) (A) (A) (A) (A) (A) (A) (A) (A)
                 (A) (A) (A) (A) (A) (A) (A) (A) (A) (A) (A) (A)
                 (A) (A) (A) (A) (A) (A) (A) (A) (A) (A) (A) (A)
                 (A) (A) (A) (A) (A) (A) (A) (A) (A) (A) (A) (A)
                 (A) (A) (A) (A) (A) (A) (A) (A) (A) (A) (A) (A)
                 (A) (A) (A) (A) (A) (A) (A) (A) (A) (A) (A) (A)
                 (A) (A) (A) (A) (A) (A) (A) (A) (A) (A) (A) (A)
                 (A) (A) (A) (A) (A) (A) (A) (A) (A) (A) (A) (A)
                 (A) (A) (A) (A) (A) (A) (A) (A) (A) (A) (A) (A)
                 (A) (A) (A) (A) (A) (A) (A) (A) (A) (A) (A) (A)
                 (A) (A) (A) (A) (A) (A) (A) (A) (A) (A) (A) (A)
                 (A) (A) (A) (A) (A) (A) (A) (A) (A) (A) (A) (A)
                 (A) (A) (A) (A) (A) (A) (A) (A) (A) (A) (A) (A)
                 (A) (A) (A) (A) (A) (A) (A) (A)
 The electronic state is 1-A.
 Alpha  occ. eigenvalues --  -77.46732 -77.43338 -19.37099 -19.34931 -19.34875
 Alpha  occ. eigenvalues --  -19.31249 -19.29633 -19.28758 -14.53520 -14.52586
 Alpha  occ. eigenvalues --  -10.40793 -10.38861  -6.87350  -6.84003  -4.99450
 Alpha  occ. eigenvalues --   -4.99255  -4.99124  -4.96081  -4.95879  -4.95821
 Alpha  occ. eigenvalues --   -1.43386  -1.23611  -1.20434  -1.18179  -1.13822
 Alpha  occ. eigenvalues --   -1.13350  -1.09104  -1.05426  -1.04103  -0.85447
 Alpha  occ. eigenvalues --   -0.84430  -0.84281  -0.83672  -0.82499  -0.75770
 Alpha  occ. eigenvalues --   -0.72747  -0.70007  -0.67240  -0.65413  -0.62953
 Alpha  occ. eigenvalues --   -0.62607  -0.60482  -0.59260  -0.58994  -0.57894
 Alpha  occ. eigenvalues --   -0.56681  -0.56448  -0.54807  -0.53265  -0.52740
 Alpha  occ. eigenvalues --   -0.51728  -0.51291  -0.48923  -0.47847  -0.46823
 Alpha  occ. eigenvalues --   -0.46390  -0.45903  -0.44813  -0.44090  -0.43367
 Alpha  occ. eigenvalues --   -0.42295  -0.41338
 Alpha virt. eigenvalues --   -0.18191  -0.15184  -0.13710  -0.13607  -0.12390
 Alpha virt. eigenvalues --   -0.11956  -0.10884  -0.10847  -0.09283  -0.07432
 Alpha virt. eigenvalues --   -0.06495  -0.05798  -0.05374  -0.05306  -0.04445
 Alpha virt. eigenvalues --   -0.04112  -0.03547  -0.03353  -0.02724  -0.02013
 Alpha virt. eigenvalues --   -0.01709  -0.01134  -0.00742  -0.00211   0.00375
 Alpha virt. eigenvalues --    0.00934   0.01547   0.02013   0.02607   0.02879
 Alpha virt. eigenvalues --    0.02990   0.03992   0.04947   0.05148   0.05988
 Alpha virt. eigenvalues --    0.07008   0.07695   0.09501   0.09807   0.12543
 Alpha virt. eigenvalues --    0.13713   0.15025   0.16211   0.16885   0.17187
 Alpha virt. eigenvalues --    0.17977   0.18492   0.18808   0.19680   0.20669
 Alpha virt. eigenvalues --    0.22151   0.23134   0.24680   0.25569   0.26033
 Alpha virt. eigenvalues --    0.26534   0.26886   0.27813   0.28340   0.28912
 Alpha virt. eigenvalues --    0.30062   0.30942   0.31752   0.32350   0.32983
 Alpha virt. eigenvalues --    0.33624   0.33917   0.34138   0.34657   0.35294
 Alpha virt. eigenvalues --    0.36571   0.36987   0.37486   0.37806   0.38605
 Alpha virt. eigenvalues --    0.39266   0.39437   0.40303   0.40869   0.41219
 Alpha virt. eigenvalues --    0.42010   0.43026   0.43426   0.43970   0.44450
 Alpha virt. eigenvalues --    0.45464   0.46283   0.48316   0.49062   0.49971
 Alpha virt. eigenvalues --    0.50934   0.51923   0.53380   0.54373   0.55120
 Alpha virt. eigenvalues --    0.56263   0.57288   0.58262   0.59097   0.59859
 Alpha virt. eigenvalues --    0.60732   0.63081   0.63896   0.64229   0.66707
 Alpha virt. eigenvalues --    0.68040   0.69213   0.69807   0.70023   0.72216
 Alpha virt. eigenvalues --    0.73188   0.73851   0.74931   0.75291   0.76204
 Alpha virt. eigenvalues --    0.77958   0.78809   0.79631   0.80075   0.81125
 Alpha virt. eigenvalues --    0.81455   0.83155   0.83760   0.84717   0.87551
 Alpha virt. eigenvalues --    0.89655   0.92861   0.93629   0.94063   0.96541
 Alpha virt. eigenvalues --    0.98514   1.04534   1.05604   1.06196   1.06865
 Alpha virt. eigenvalues --    1.08141   1.09553   1.10653   1.11342   1.12404
 Alpha virt. eigenvalues --    1.13233   1.15229   1.16429   1.17998   1.19320
 Alpha virt. eigenvalues --    1.20734   1.21437   1.23585   1.24143   1.25287
 Alpha virt. eigenvalues --    1.27379   1.27721   1.28729   1.30650   1.31655
 Alpha virt. eigenvalues --    1.32169   1.33350   1.33829   1.34904   1.36105
 Alpha virt. eigenvalues --    1.36571   1.37175   1.38922   1.40980   1.41260
 Alpha virt. eigenvalues --    1.42291   1.42454   1.45869   1.47615   1.50240
 Alpha virt. eigenvalues --    1.51879   1.52704   1.52944   1.56713   1.57180
 Alpha virt. eigenvalues --    1.57436   1.60497   1.63064   1.63171   1.64787
 Alpha virt. eigenvalues --    1.66409   1.67187   1.69008   1.70009   1.71473
 Alpha virt. eigenvalues --    1.74379   1.75623   1.76849   1.77829   1.78212
 Alpha virt. eigenvalues --    1.78926   1.79402   1.80498   1.81422   1.82507
 Alpha virt. eigenvalues --    1.84258   1.85026   1.85235   1.86837   1.87483
 Alpha virt. eigenvalues --    1.88017   1.89294   1.90214   1.92467   1.93111
 Alpha virt. eigenvalues --    1.93967   1.96469   1.97613   1.98608   2.01467
 Alpha virt. eigenvalues --    2.03336   2.03809   2.04267   2.05136   2.07457
 Alpha virt. eigenvalues --    2.08378   2.09123   2.10896   2.11455   2.12498
 Alpha virt. eigenvalues --    2.14330   2.14530   2.16760   2.19303   2.20080
 Alpha virt. eigenvalues --    2.21662   2.22207   2.24190   2.25045   2.25711
 Alpha virt. eigenvalues --    2.26834   2.28712   2.31109   2.33164   2.34279
 Alpha virt. eigenvalues --    2.36009   2.36699   2.40139   2.41758   2.42696
 Alpha virt. eigenvalues --    2.43188   2.45496   2.48494   2.49145   2.51320
 Alpha virt. eigenvalues --    2.53029   2.54032   2.55930   2.57540   2.58251
 Alpha virt. eigenvalues --    2.59448   2.60907   2.65883   2.66643   2.74215
 Alpha virt. eigenvalues --    2.75313   2.76319   2.77200   2.81890   2.83260
 Alpha virt. eigenvalues --    2.83873   2.84838   2.87671   2.88757   2.90827
 Alpha virt. eigenvalues --    2.91227   2.92897   2.94440   2.95981   2.97291
 Alpha virt. eigenvalues --    2.99000   3.01514   3.02036   3.04747   3.05475
 Alpha virt. eigenvalues --    3.06809   3.07455   3.08402   3.13282   3.14397
 Alpha virt. eigenvalues --    3.17794   3.19082   3.20004   3.20763   3.23684
 Alpha virt. eigenvalues --    3.25119   3.34138   3.35157   3.37063   3.37639
 Alpha virt. eigenvalues --    3.41660   3.42232   3.43186   3.44796   3.57906
 Alpha virt. eigenvalues --    3.63113   3.65373   3.66957   3.67078   3.69266
 Alpha virt. eigenvalues --    3.71863   3.80539   3.82727   3.84738   3.86154
 Alpha virt. eigenvalues --    3.87669   3.91522   3.95044   3.96028   4.15184
 Alpha virt. eigenvalues --    4.16777   4.18774   4.20680   4.49048   4.50026
 Alpha virt. eigenvalues --    4.59114   4.60231   4.62538   4.64048   4.70426
 Alpha virt. eigenvalues --    4.74881   4.85491   4.86150   4.88841   4.89688
 Alpha virt. eigenvalues --    4.94050   4.95534   4.98201   4.98608   4.99787
 Alpha virt. eigenvalues --    5.00904   5.02820   5.03111   5.04077   5.04624
 Alpha virt. eigenvalues --    5.04941   5.05672   5.05890   5.06407   5.06605
 Alpha virt. eigenvalues --    5.07385   5.08058   5.09324   5.11007   5.11914
 Alpha virt. eigenvalues --    5.12902   5.14417   5.15211   5.17915   5.18827
 Alpha virt. eigenvalues --    5.19686   5.21251   5.22977   5.24228   5.25361
 Alpha virt. eigenvalues --    5.26183   5.26782   5.30880   5.32637   5.34181
 Alpha virt. eigenvalues --    5.36721   5.39445   5.39626   5.41345   5.42845
 Alpha virt. eigenvalues --    5.45747   5.46533   5.49139   5.50523   5.52475
 Alpha virt. eigenvalues --    5.54664   5.55520   6.08208   6.09509   6.12376
 Alpha virt. eigenvalues --    6.24887   6.27105   6.28310   6.30186   6.32681
 Alpha virt. eigenvalues --    6.34288   6.39183   6.39616   6.42748   6.47640
 Alpha virt. eigenvalues --    6.50872   6.54829   6.57222   6.57634   6.61367
 Alpha virt. eigenvalues --    6.65789   6.67049   6.70226   6.70839   6.71457
 Alpha virt. eigenvalues --    6.74532   6.76167   6.79345   6.82652   6.85891
 Alpha virt. eigenvalues --    6.86924   6.90694   6.92932   7.04191   7.13449
 Alpha virt. eigenvalues --    7.73607   7.76400   7.93525   8.02053   8.05294
 Alpha virt. eigenvalues --    8.09046   8.18238   9.41213  10.67143  16.85033
 Alpha virt. eigenvalues --   16.95331  22.15980  22.16439  26.04077  31.80308
 Alpha virt. eigenvalues --   31.81085  43.45012  43.48812  43.52718  43.56188
 Alpha virt. eigenvalues --   43.61476  43.66324 256.94310
  Beta  occ. eigenvalues --  -77.46732 -77.43338 -19.37099 -19.34931 -19.34875
  Beta  occ. eigenvalues --  -19.31249 -19.29633 -19.28758 -14.53520 -14.52586
  Beta  occ. eigenvalues --  -10.40793 -10.38861  -6.87350  -6.84003  -4.99450
  Beta  occ. eigenvalues --   -4.99255  -4.99124  -4.96081  -4.95879  -4.95821
  Beta  occ. eigenvalues --   -1.43386  -1.23611  -1.20434  -1.18179  -1.13822
  Beta  occ. eigenvalues --   -1.13350  -1.09104  -1.05426  -1.04103  -0.85447
  Beta  occ. eigenvalues --   -0.84430  -0.84281  -0.83672  -0.82499  -0.75770
  Beta  occ. eigenvalues --   -0.72747  -0.70007  -0.67240  -0.65413  -0.62953
  Beta  occ. eigenvalues --   -0.62607  -0.60482  -0.59260  -0.58994  -0.57894
  Beta  occ. eigenvalues --   -0.56681  -0.56448  -0.54807  -0.53265  -0.52740
  Beta  occ. eigenvalues --   -0.51728  -0.51291  -0.48923  -0.47847  -0.46823
  Beta  occ. eigenvalues --   -0.46390  -0.45903  -0.44813  -0.44090  -0.43367
  Beta  occ. eigenvalues --   -0.42295  -0.41338
  Beta virt. eigenvalues --   -0.18191  -0.15184  -0.13710  -0.13607  -0.12390
  Beta virt. eigenvalues --   -0.11956  -0.10884  -0.10847  -0.09283  -0.07432
  Beta virt. eigenvalues --   -0.06495  -0.05798  -0.05374  -0.05306  -0.04445
  Beta virt. eigenvalues --   -0.04112  -0.03547  -0.03353  -0.02724  -0.02013
  Beta virt. eigenvalues --   -0.01709  -0.01134  -0.00742  -0.00211   0.00375
  Beta virt. eigenvalues --    0.00934   0.01547   0.02013   0.02607   0.02879
  Beta virt. eigenvalues --    0.02990   0.03992   0.04947   0.05148   0.05988
  Beta virt. eigenvalues --    0.07008   0.07695   0.09501   0.09807   0.12543
  Beta virt. eigenvalues --    0.13713   0.15025   0.16211   0.16885   0.17187
  Beta virt. eigenvalues --    0.17977   0.18492   0.18808   0.19680   0.20669
  Beta virt. eigenvalues --    0.22151   0.23134   0.24680   0.25569   0.26033
  Beta virt. eigenvalues --    0.26534   0.26886   0.27813   0.28340   0.28912
  Beta virt. eigenvalues --    0.30062   0.30942   0.31752   0.32350   0.32983
  Beta virt. eigenvalues --    0.33624   0.33917   0.34138   0.34657   0.35294
  Beta virt. eigenvalues --    0.36571   0.36987   0.37486   0.37806   0.38605
  Beta virt. eigenvalues --    0.39266   0.39437   0.40303   0.40869   0.41219
  Beta virt. eigenvalues --    0.42010   0.43026   0.43426   0.43970   0.44450
  Beta virt. eigenvalues --    0.45464   0.46283   0.48316   0.49062   0.49971
  Beta virt. eigenvalues --    0.50934   0.51923   0.53380   0.54373   0.55120
  Beta virt. eigenvalues --    0.56263   0.57288   0.58262   0.59097   0.59859
  Beta virt. eigenvalues --    0.60732   0.63081   0.63896   0.64229   0.66707
  Beta virt. eigenvalues --    0.68040   0.69213   0.69807   0.70023   0.72216
  Beta virt. eigenvalues --    0.73188   0.73851   0.74931   0.75291   0.76204
  Beta virt. eigenvalues --    0.77958   0.78809   0.79631   0.80075   0.81125
  Beta virt. eigenvalues --    0.81455   0.83155   0.83760   0.84717   0.87551
  Beta virt. eigenvalues --    0.89655   0.92861   0.93629   0.94063   0.96541
  Beta virt. eigenvalues --    0.98514   1.04534   1.05604   1.06196   1.06865
  Beta virt. eigenvalues --    1.08141   1.09553   1.10653   1.11342   1.12404
  Beta virt. eigenvalues --    1.13233   1.15229   1.16429   1.17998   1.19320
  Beta virt. eigenvalues --    1.20734   1.21437   1.23585   1.24143   1.25287
  Beta virt. eigenvalues --    1.27379   1.27721   1.28729   1.30650   1.31655
  Beta virt. eigenvalues --    1.32169   1.33350   1.33829   1.34904   1.36105
  Beta virt. eigenvalues --    1.36571   1.37175   1.38922   1.40980   1.41260
  Beta virt. eigenvalues --    1.42291   1.42454   1.45869   1.47615   1.50240
  Beta virt. eigenvalues --    1.51879   1.52704   1.52944   1.56713   1.57180
  Beta virt. eigenvalues --    1.57436   1.60497   1.63064   1.63171   1.64787
  Beta virt. eigenvalues --    1.66409   1.67187   1.69008   1.70009   1.71473
  Beta virt. eigenvalues --    1.74379   1.75623   1.76849   1.77829   1.78212
  Beta virt. eigenvalues --    1.78926   1.79402   1.80498   1.81422   1.82507
  Beta virt. eigenvalues --    1.84258   1.85026   1.85235   1.86837   1.87483
  Beta virt. eigenvalues --    1.88017   1.89294   1.90214   1.92467   1.93111
  Beta virt. eigenvalues --    1.93967   1.96469   1.97613   1.98608   2.01467
  Beta virt. eigenvalues --    2.03336   2.03809   2.04267   2.05136   2.07457
  Beta virt. eigenvalues --    2.08378   2.09123   2.10896   2.11455   2.12498
  Beta virt. eigenvalues --    2.14330   2.14530   2.16760   2.19303   2.20080
  Beta virt. eigenvalues --    2.21662   2.22207   2.24190   2.25045   2.25711
  Beta virt. eigenvalues --    2.26834   2.28712   2.31109   2.33164   2.34279
  Beta virt. eigenvalues --    2.36009   2.36699   2.40139   2.41758   2.42696
  Beta virt. eigenvalues --    2.43188   2.45496   2.48494   2.49145   2.51320
  Beta virt. eigenvalues --    2.53029   2.54032   2.55930   2.57540   2.58251
  Beta virt. eigenvalues --    2.59448   2.60907   2.65883   2.66643   2.74215
  Beta virt. eigenvalues --    2.75313   2.76319   2.77200   2.81890   2.83260
  Beta virt. eigenvalues --    2.83873   2.84838   2.87671   2.88757   2.90827
  Beta virt. eigenvalues --    2.91227   2.92897   2.94440   2.95981   2.97291
  Beta virt. eigenvalues --    2.99000   3.01514   3.02036   3.04747   3.05475
  Beta virt. eigenvalues --    3.06809   3.07455   3.08402   3.13282   3.14397
  Beta virt. eigenvalues --    3.17794   3.19082   3.20004   3.20763   3.23684
  Beta virt. eigenvalues --    3.25119   3.34138   3.35157   3.37063   3.37639
  Beta virt. eigenvalues --    3.41660   3.42232   3.43186   3.44796   3.57906
  Beta virt. eigenvalues --    3.63113   3.65373   3.66957   3.67078   3.69266
  Beta virt. eigenvalues --    3.71863   3.80539   3.82727   3.84738   3.86154
  Beta virt. eigenvalues --    3.87669   3.91522   3.95044   3.96028   4.15184
  Beta virt. eigenvalues --    4.16777   4.18774   4.20680   4.49048   4.50026
  Beta virt. eigenvalues --    4.59114   4.60231   4.62538   4.64048   4.70426
  Beta virt. eigenvalues --    4.74881   4.85491   4.86150   4.88841   4.89688
  Beta virt. eigenvalues --    4.94050   4.95534   4.98201   4.98608   4.99787
  Beta virt. eigenvalues --    5.00904   5.02820   5.03111   5.04077   5.04624
  Beta virt. eigenvalues --    5.04941   5.05672   5.05890   5.06407   5.06605
  Beta virt. eigenvalues --    5.07385   5.08058   5.09324   5.11007   5.11914
  Beta virt. eigenvalues --    5.12902   5.14417   5.15211   5.17915   5.18827
  Beta virt. eigenvalues --    5.19686   5.21251   5.22977   5.24228   5.25361
  Beta virt. eigenvalues --    5.26183   5.26782   5.30880   5.32637   5.34181
  Beta virt. eigenvalues --    5.36721   5.39445   5.39626   5.41345   5.42845
  Beta virt. eigenvalues --    5.45747   5.46533   5.49139   5.50523   5.52475
  Beta virt. eigenvalues --    5.54664   5.55520   6.08208   6.09509   6.12376
  Beta virt. eigenvalues --    6.24887   6.27105   6.28310   6.30186   6.32681
  Beta virt. eigenvalues --    6.34288   6.39183   6.39616   6.42748   6.47640
  Beta virt. eigenvalues --    6.50872   6.54829   6.57222   6.57634   6.61367
  Beta virt. eigenvalues --    6.65789   6.67049   6.70226   6.70839   6.71457
  Beta virt. eigenvalues --    6.74532   6.76167   6.79345   6.82652   6.85891
  Beta virt. eigenvalues --    6.86924   6.90694   6.92932   7.04191   7.13449
  Beta virt. eigenvalues --    7.73607   7.76400   7.93525   8.02053   8.05294
  Beta virt. eigenvalues --    8.09046   8.18238   9.41213  10.67143  16.85033
  Beta virt. eigenvalues --   16.95331  22.15980  22.16439  26.04077  31.80308
  Beta virt. eigenvalues --   31.81085  43.45012  43.48812  43.52718  43.56188
  Beta virt. eigenvalues --   43.61476  43.66324 256.94310
          Condensed to atoms (all electrons):
               1          2          3          4          5          6
     1  N    6.892605   0.118268  -0.055063   0.000031  -0.002197   0.002457
     2  C    0.118268   4.972365   0.356866  -0.035421  -0.023580  -0.033115
     3  P   -0.055063   0.356866  12.724096   0.441009   0.418345   0.386367
     4  O    0.000031  -0.035421   0.441009   8.354282  -0.048586  -0.023317
     5  O   -0.002197  -0.023580   0.418345  -0.048586   8.314534  -0.024836
     6  O    0.002457  -0.033115   0.386367  -0.023317  -0.024836   7.886824
     7  Ba   0.037594  -0.005616  -0.012062   0.031214   0.028251   0.003965
     8  H   -0.000219   0.002343  -0.006174   0.001146   0.001191   0.293200
     9  H    0.340575  -0.022493   0.001783  -0.000766   0.000305  -0.000032
    10  H   -0.028664   0.415859  -0.038468  -0.000043   0.002224   0.002288
    11  H   -0.025289   0.409623  -0.026531   0.002831  -0.002743   0.003310
    12  H    0.356637  -0.025952   0.008089   0.000426  -0.001068  -0.000114
    13  N    0.000012   0.000140   0.000437  -0.014211  -0.000140  -0.000008
    14  C    0.000099   0.000003   0.000381  -0.001456   0.000010  -0.000002
    15  P   -0.000122   0.000209  -0.000082   0.009546   0.000028   0.000022
    16  O   -0.000910   0.000683   0.001336  -0.058905  -0.000075  -0.000041
    17  O   -0.004915  -0.000508   0.000455  -0.006263   0.000135   0.000002
    18  O    0.000008  -0.000002   0.000010  -0.000056  -0.000000  -0.000000
    19  H   -0.000004   0.000001  -0.000006   0.000033   0.000000   0.000000
    20  H    0.000022  -0.000075   0.000312   0.003850  -0.000033  -0.000116
    21  H    0.000004   0.000002  -0.000024  -0.000330   0.000000  -0.000001
    22  H   -0.000001  -0.000004   0.000001  -0.000021  -0.000005   0.000000
    23  H   -0.000006  -0.000002  -0.000135   0.000718  -0.000084  -0.000000
    24  H    0.000772  -0.000267  -0.007205   0.067949   0.000756  -0.000114
               7          8          9         10         11         12
     1  N    0.037594  -0.000219   0.340575  -0.028664  -0.025289   0.356637
     2  C   -0.005616   0.002343  -0.022493   0.415859   0.409623  -0.025952
     3  P   -0.012062  -0.006174   0.001783  -0.038468  -0.026531   0.008089
     4  O    0.031214   0.001146  -0.000766  -0.000043   0.002831   0.000426
     5  O    0.028251   0.001191   0.000305   0.002224  -0.002743  -0.001068
     6  O    0.003965   0.293200  -0.000032   0.002288   0.003310  -0.000114
     7  Ba   8.357942   0.000974  -0.004977   0.004579  -0.003543  -0.003714
     8  H    0.000974   0.336623   0.000008  -0.000387  -0.000035   0.000015
     9  H   -0.004977   0.000008   0.442356  -0.010994   0.004019  -0.018478
    10  H    0.004579  -0.000387  -0.010994   0.520875  -0.018454  -0.003349
    11  H   -0.003543  -0.000035   0.004019  -0.018454   0.518766  -0.008543
    12  H   -0.003714   0.000015  -0.018478  -0.003349  -0.008543   0.437786
    13  N    0.031653   0.000001   0.000124   0.000002   0.000001   0.000001
    14  C   -0.006035   0.000001  -0.000061  -0.000001  -0.000001  -0.000007
    15  P   -0.006775  -0.000003  -0.000218   0.000038   0.000006   0.000003
    16  O    0.000352   0.000003   0.003082  -0.000049  -0.000004  -0.000003
    17  O    0.008204   0.000000   0.001345  -0.000053  -0.000029  -0.000136
    18  O    0.001317  -0.000000  -0.000082   0.000000  -0.000000  -0.000000
    19  H    0.000475  -0.000000   0.000005  -0.000001   0.000000  -0.000001
    20  H   -0.006791   0.000010  -0.000036   0.000001  -0.000004  -0.000002
    21  H    0.004148  -0.000000   0.000001   0.000000   0.000000   0.000000
    22  H   -0.003313   0.000000  -0.000008   0.000000   0.000000   0.000000
    23  H   -0.002746  -0.000001   0.000001   0.000000  -0.000000  -0.000000
    24  H   -0.004928  -0.000030   0.000449  -0.000076   0.000156  -0.000067
              13         14         15         16         17         18
     1  N    0.000012   0.000099  -0.000122  -0.000910  -0.004915   0.000008
     2  C    0.000140   0.000003   0.000209   0.000683  -0.000508  -0.000002
     3  P    0.000437   0.000381  -0.000082   0.001336   0.000455   0.000010
     4  O   -0.014211  -0.001456   0.009546  -0.058905  -0.006263  -0.000056
     5  O   -0.000140   0.000010   0.000028  -0.000075   0.000135  -0.000000
     6  O   -0.000008  -0.000002   0.000022  -0.000041   0.000002  -0.000000
     7  Ba   0.031653  -0.006035  -0.006775   0.000352   0.008204   0.001317
     8  H    0.000001   0.000001  -0.000003   0.000003   0.000000  -0.000000
     9  H    0.000124  -0.000061  -0.000218   0.003082   0.001345  -0.000082
    10  H    0.000002  -0.000001   0.000038  -0.000049  -0.000053   0.000000
    11  H    0.000001  -0.000001   0.000006  -0.000004  -0.000029  -0.000000
    12  H    0.000001  -0.000007   0.000003  -0.000003  -0.000136  -0.000000
    13  N    6.909901   0.136093  -0.050107  -0.000452  -0.001981   0.001971
    14  C    0.136093   4.958154   0.348022  -0.014052  -0.022313  -0.032742
    15  P   -0.050107   0.348022  12.655728   0.355872   0.469409   0.413744
    16  O   -0.000452  -0.014052   0.355872   7.973979  -0.032976  -0.025782
    17  O   -0.001981  -0.022313   0.469409  -0.032976   8.282299  -0.023112
    18  O    0.001971  -0.032742   0.413744  -0.025782  -0.023112   7.846608
    19  H   -0.000166   0.002805  -0.007986   0.001002   0.000836   0.297055
    20  H    0.340275  -0.016812  -0.002929   0.002289  -0.000013   0.000032
    21  H   -0.026809   0.413458  -0.029956  -0.002319   0.002408   0.003470
    22  H   -0.032503   0.413064  -0.023506   0.001602  -0.003152   0.001276
    23  H    0.354432  -0.029270   0.008629  -0.000345  -0.000382  -0.000093
    24  H    0.000633   0.000667  -0.010517   0.273201  -0.000272   0.001523
              19         20         21         22         23         24
     1  N   -0.000004   0.000022   0.000004  -0.000001  -0.000006   0.000772
     2  C    0.000001  -0.000075   0.000002  -0.000004  -0.000002  -0.000267
     3  P   -0.000006   0.000312  -0.000024   0.000001  -0.000135  -0.007205
     4  O    0.000033   0.003850  -0.000330  -0.000021   0.000718   0.067949
     5  O    0.000000  -0.000033   0.000000  -0.000005  -0.000084   0.000756
     6  O    0.000000  -0.000116  -0.000001   0.000000  -0.000000  -0.000114
     7  Ba   0.000475  -0.006791   0.004148  -0.003313  -0.002746  -0.004928
     8  H   -0.000000   0.000010  -0.000000   0.000000  -0.000001  -0.000030
     9  H    0.000005  -0.000036   0.000001  -0.000008   0.000001   0.000449
    10  H   -0.000001   0.000001   0.000000   0.000000   0.000000  -0.000076
    11  H    0.000000  -0.000004   0.000000   0.000000  -0.000000   0.000156
    12  H   -0.000001  -0.000002   0.000000   0.000000  -0.000000  -0.000067
    13  N   -0.000166   0.340275  -0.026809  -0.032503   0.354432   0.000633
    14  C    0.002805  -0.016812   0.413458   0.413064  -0.029270   0.000667
    15  P   -0.007986  -0.002929  -0.029956  -0.023506   0.008629  -0.010517
    16  O    0.001002   0.002289  -0.002319   0.001602  -0.000345   0.273201
    17  O    0.000836  -0.000013   0.002408  -0.003152  -0.000382  -0.000272
    18  O    0.297055   0.000032   0.003470   0.001276  -0.000093   0.001523
    19  H    0.327574  -0.000011  -0.000250  -0.000218   0.000014   0.000102
    20  H   -0.000011   0.414805  -0.007981   0.004846  -0.016705  -0.000293
    21  H   -0.000250  -0.007981   0.510234  -0.022530  -0.005859   0.000274
    22  H   -0.000218   0.004846  -0.022530   0.508137  -0.006566  -0.000050
    23  H    0.000014  -0.016705  -0.005859  -0.006566   0.439748  -0.000064
    24  H    0.000102  -0.000293   0.000274  -0.000050  -0.000064   0.272539
          Atomic-Atomic Spin Densities.
               1          2          3          4          5          6
     1  N    0.000000   0.000000   0.000000   0.000000   0.000000   0.000000
     2  C    0.000000   0.000000   0.000000   0.000000   0.000000   0.000000
     3  P    0.000000   0.000000   0.000000   0.000000   0.000000   0.000000
     4  O    0.000000   0.000000   0.000000   0.000000   0.000000   0.000000
     5  O    0.000000   0.000000   0.000000   0.000000   0.000000   0.000000
     6  O    0.000000   0.000000   0.000000   0.000000   0.000000   0.000000
     7  Ba   0.000000   0.000000   0.000000   0.000000   0.000000   0.000000
     8  H    0.000000   0.000000   0.000000   0.000000   0.000000   0.000000
     9  H    0.000000   0.000000   0.000000   0.000000   0.000000   0.000000
    10  H    0.000000   0.000000   0.000000   0.000000   0.000000   0.000000
    11  H    0.000000   0.000000   0.000000   0.000000   0.000000   0.000000
    12  H    0.000000   0.000000   0.000000   0.000000   0.000000   0.000000
    13  N    0.000000   0.000000   0.000000   0.000000   0.000000   0.000000
    14  C    0.000000   0.000000   0.000000   0.000000   0.000000   0.000000
    15  P    0.000000   0.000000   0.000000   0.000000   0.000000   0.000000
    16  O    0.000000   0.000000   0.000000   0.000000   0.000000   0.000000
    17  O    0.000000   0.000000   0.000000   0.000000   0.000000   0.000000
    18  O    0.000000   0.000000   0.000000   0.000000   0.000000   0.000000
    19  H    0.000000   0.000000   0.000000   0.000000   0.000000   0.000000
    20  H    0.000000   0.000000   0.000000   0.000000   0.000000   0.000000
    21  H    0.000000   0.000000   0.000000   0.000000   0.000000   0.000000
    22  H    0.000000   0.000000   0.000000   0.000000   0.000000   0.000000
    23  H    0.000000   0.000000   0.000000   0.000000   0.000000   0.000000
    24  H    0.000000   0.000000   0.000000   0.000000   0.000000   0.000000
               7          8          9         10         11         12
     1  N    0.000000   0.000000   0.000000   0.000000   0.000000   0.000000
     2  C    0.000000   0.000000   0.000000   0.000000   0.000000   0.000000
     3  P    0.000000   0.000000   0.000000   0.000000   0.000000   0.000000
     4  O    0.000000   0.000000   0.000000   0.000000   0.000000   0.000000
     5  O    0.000000   0.000000   0.000000   0.000000   0.000000   0.000000
     6  O    0.000000   0.000000   0.000000   0.000000   0.000000   0.000000
     7  Ba   0.000000   0.000000   0.000000   0.000000   0.000000   0.000000
     8  H    0.000000   0.000000   0.000000   0.000000   0.000000   0.000000
     9  H    0.000000   0.000000   0.000000   0.000000   0.000000   0.000000
    10  H    0.000000   0.000000   0.000000   0.000000   0.000000   0.000000
    11  H    0.000000   0.000000   0.000000   0.000000   0.000000   0.000000
    12  H    0.000000   0.000000   0.000000   0.000000   0.000000   0.000000
    13  N    0.000000   0.000000   0.000000   0.000000   0.000000   0.000000
    14  C    0.000000   0.000000   0.000000   0.000000   0.000000   0.000000
    15  P    0.000000   0.000000   0.000000   0.000000   0.000000   0.000000
    16  O    0.000000   0.000000   0.000000   0.000000   0.000000   0.000000
    17  O    0.000000   0.000000   0.000000   0.000000   0.000000   0.000000
    18  O    0.000000   0.000000   0.000000   0.000000   0.000000   0.000000
    19  H    0.000000   0.000000   0.000000   0.000000   0.000000   0.000000
    20  H    0.000000   0.000000   0.000000   0.000000   0.000000   0.000000
    21  H    0.000000   0.000000   0.000000   0.000000   0.000000   0.000000
    22  H    0.000000   0.000000   0.000000   0.000000   0.000000   0.000000
    23  H    0.000000   0.000000   0.000000   0.000000   0.000000   0.000000
    24  H    0.000000   0.000000   0.000000   0.000000   0.000000   0.000000
              13         14         15         16         17         18
     1  N    0.000000   0.000000   0.000000   0.000000   0.000000   0.000000
     2  C    0.000000   0.000000   0.000000   0.000000   0.000000   0.000000
     3  P    0.000000   0.000000   0.000000   0.000000   0.000000   0.000000
     4  O    0.000000   0.000000   0.000000   0.000000   0.000000   0.000000
     5  O    0.000000   0.000000   0.000000   0.000000   0.000000   0.000000
     6  O    0.000000   0.000000   0.000000   0.000000   0.000000   0.000000
     7  Ba   0.000000   0.000000   0.000000   0.000000   0.000000   0.000000
     8  H    0.000000   0.000000   0.000000   0.000000   0.000000   0.000000
     9  H    0.000000   0.000000   0.000000   0.000000   0.000000   0.000000
    10  H    0.000000   0.000000   0.000000   0.000000   0.000000   0.000000
    11  H    0.000000   0.000000   0.000000   0.000000   0.000000   0.000000
    12  H    0.000000   0.000000   0.000000   0.000000   0.000000   0.000000
    13  N    0.000000   0.000000   0.000000   0.000000   0.000000   0.000000
    14  C    0.000000   0.000000   0.000000   0.000000   0.000000   0.000000
    15  P    0.000000   0.000000   0.000000   0.000000   0.000000   0.000000
    16  O    0.000000   0.000000   0.000000   0.000000   0.000000   0.000000
    17  O    0.000000   0.000000   0.000000   0.000000   0.000000   0.000000
    18  O    0.000000   0.000000   0.000000   0.000000   0.000000   0.000000
    19  H    0.000000   0.000000   0.000000   0.000000   0.000000   0.000000
    20  H    0.000000   0.000000   0.000000   0.000000   0.000000   0.000000
    21  H    0.000000   0.000000   0.000000   0.000000   0.000000   0.000000
    22  H    0.000000   0.000000   0.000000   0.000000   0.000000   0.000000
    23  H    0.000000   0.000000   0.000000   0.000000   0.000000   0.000000
    24  H    0.000000   0.000000   0.000000   0.000000   0.000000   0.000000
              19         20         21         22         23         24
     1  N    0.000000   0.000000   0.000000   0.000000   0.000000   0.000000
     2  C    0.000000   0.000000   0.000000   0.000000   0.000000   0.000000
     3  P    0.000000   0.000000   0.000000   0.000000   0.000000   0.000000
     4  O    0.000000   0.000000   0.000000   0.000000   0.000000   0.000000
     5  O    0.000000   0.000000   0.000000   0.000000   0.000000   0.000000
     6  O    0.000000   0.000000   0.000000   0.000000   0.000000   0.000000
     7  Ba   0.000000   0.000000   0.000000   0.000000   0.000000   0.000000
     8  H    0.000000   0.000000   0.000000   0.000000   0.000000   0.000000
     9  H    0.000000   0.000000   0.000000   0.000000   0.000000   0.000000
    10  H    0.000000   0.000000   0.000000   0.000000   0.000000   0.000000
    11  H    0.000000   0.000000   0.000000   0.000000   0.000000   0.000000
    12  H    0.000000   0.000000   0.000000   0.000000   0.000000   0.000000
    13  N    0.000000   0.000000   0.000000   0.000000   0.000000   0.000000
    14  C    0.000000   0.000000   0.000000   0.000000   0.000000   0.000000
    15  P    0.000000   0.000000   0.000000   0.000000   0.000000   0.000000
    16  O    0.000000   0.000000   0.000000   0.000000   0.000000   0.000000
    17  O    0.000000   0.000000   0.000000   0.000000   0.000000   0.000000
    18  O    0.000000   0.000000   0.000000   0.000000   0.000000   0.000000
    19  H    0.000000   0.000000   0.000000   0.000000   0.000000   0.000000
    20  H    0.000000   0.000000   0.000000   0.000000   0.000000   0.000000
    21  H    0.000000   0.000000   0.000000   0.000000   0.000000   0.000000
    22  H    0.000000   0.000000   0.000000   0.000000   0.000000   0.000000
    23  H    0.000000   0.000000   0.000000   0.000000   0.000000   0.000000
    24  H    0.000000   0.000000   0.000000   0.000000   0.000000   0.000000
 Mulliken charges and spin densities:
               1          2
     1  N   -0.631696   0.000000
     2  C   -0.129325   0.000000
     3  P    0.806262   0.000000
     4  O   -0.723658   0.000000
     5  O   -0.662430   0.000000
     6  O   -0.496737   0.000000
     7  Ba   1.549833   0.000000
     8  H    0.371334   0.000000
     9  H    0.264093   0.000000
    10  H    0.154671   0.000000
    11  H    0.146465   0.000000
    12  H    0.258477   0.000000
    13  N   -0.649299   0.000000
    14  C   -0.150004   0.000000
    15  P    0.870945   0.000000
    16  O   -0.477487   0.000000
    17  O   -0.668989   0.000000
    18  O   -0.485145   0.000000
    19  H    0.378740   0.000000
    20  H    0.285359   0.000000
    21  H    0.162060   0.000000
    22  H    0.162951   0.000000
    23  H    0.258718   0.000000
    24  H    0.404862   0.000000
 Sum of Mulliken charges =   1.00000   0.00000
 Mulliken charges and spin densities with hydrogens summed into heavy atoms:
               1          2
     1  N   -0.109126   0.000000
     2  C    0.171811   0.000000
     3  P    0.806262   0.000000
     4  O   -0.723658   0.000000
     5  O   -0.662430   0.000000
     6  O   -0.125403   0.000000
     7  Ba   1.549833   0.000000
    13  N   -0.105221   0.000000
    14  C    0.175007   0.000000
    15  P    0.870945   0.000000
    16  O   -0.072625   0.000000
    17  O   -0.668989   0.000000
    18  O   -0.106406   0.000000
 Electronic spatial extent (au):  <R**2>=           3585.6264
 Charge=              1.0000 electrons
 Dipole moment (field-independent basis, Debye):
    X=             -0.6356    Y=             -4.6330    Z=              0.6457  Tot=              4.7208
 Quadrupole moment (field-independent basis, Debye-Ang):
   XX=            -81.2666   YY=            -82.9218   ZZ=            -83.6271
   XY=             -1.9313   XZ=              7.6912   YZ=              5.4048
 Traceless Quadrupole moment (field-independent basis, Debye-Ang):
   XX=              1.3386   YY=             -0.3167   ZZ=             -1.0219
   XY=             -1.9313   XZ=              7.6912   YZ=              5.4048
 Octapole moment (field-independent basis, Debye-Ang**2):
  XXX=             10.9282  YYY=           -134.0363  ZZZ=              2.8771  XYY=             -2.1163
  XXY=             24.5530  XXZ=             -4.5761  XZZ=             10.6478  YZZ=            -19.7085
  YYZ=             17.7168  XYZ=            -23.3038
 Hexadecapole moment (field-independent basis, Debye-Ang**3):
 XXXX=          -2430.9817 YYYY=           -926.6655 ZZZZ=           -617.2180 XXXY=            -42.0489
 XXXZ=            -97.8452 YYYX=            -95.0634 YYYZ=             11.1540 ZZZX=             19.7462
 ZZZY=              5.9064 XXYY=           -545.1433 XXZZ=           -438.2006 YYZZ=           -262.1836
 XXYZ=             26.9452 YYXZ=            -28.3497 ZZXY=             -6.0066
 N-N= 1.258546063384D+03 E-N=-5.692197961323D+03  KE= 1.330010567371D+03
                          Isotropic Fermi Contact Couplings
        Atom                 a.u.       MegaHertz       Gauss      10(-4) cm-1
     1  N(14)              0.00000       0.00000       0.00000       0.00000
     2  C(13)              0.00000       0.00000       0.00000       0.00000
     3  P(31)              0.00000       0.00000       0.00000       0.00000
     4  O(17)              0.00000      -0.00000      -0.00000      -0.00000
     5  O(17)              0.00000      -0.00000      -0.00000      -0.00000
     6  O(17)              0.00000      -0.00000      -0.00000      -0.00000
     7  Ba(135             0.00000       0.00000       0.00000       0.00000
     8  H(1)               0.00000       0.00000       0.00000       0.00000
     9  H(1)               0.00000       0.00000       0.00000       0.00000
    10  H(1)               0.00000       0.00000       0.00000       0.00000
    11  H(1)               0.00000       0.00000       0.00000       0.00000
    12  H(1)               0.00000       0.00000       0.00000       0.00000
    13  N(14)              0.00000       0.00000       0.00000       0.00000
    14  C(13)              0.00000       0.00000       0.00000       0.00000
    15  P(31)              0.00000       0.00000       0.00000       0.00000
    16  O(17)              0.00000      -0.00000      -0.00000      -0.00000
    17  O(17)              0.00000      -0.00000      -0.00000      -0.00000
    18  O(17)              0.00000      -0.00000      -0.00000      -0.00000
    19  H(1)               0.00000       0.00000       0.00000       0.00000
    20  H(1)               0.00000       0.00000       0.00000       0.00000
    21  H(1)               0.00000       0.00000       0.00000       0.00000
    22  H(1)               0.00000       0.00000       0.00000       0.00000
    23  H(1)               0.00000       0.00000       0.00000       0.00000
    24  H(1)               0.00000       0.00000       0.00000       0.00000
 --------------------------------------------------------
       Center         ----  Spin Dipole Couplings  ----
                      3XX-RR        3YY-RR        3ZZ-RR
 --------------------------------------------------------
     1   Atom        0.000000      0.000000      0.000000
     2   Atom        0.000000      0.000000      0.000000
     3   Atom        0.000000      0.000000      0.000000
     4   Atom        0.000000      0.000000      0.000000
     5   Atom        0.000000      0.000000      0.000000
     6   Atom        0.000000      0.000000      0.000000
     7   Atom        0.000000      0.000000      0.000000
     8   Atom        0.000000      0.000000      0.000000
     9   Atom        0.000000      0.000000      0.000000
    10   Atom        0.000000      0.000000      0.000000
    11   Atom        0.000000      0.000000      0.000000
    12   Atom        0.000000      0.000000      0.000000
    13   Atom        0.000000      0.000000      0.000000
    14   Atom        0.000000      0.000000      0.000000
    15   Atom        0.000000      0.000000      0.000000
[...]
 0257688,-0.00285013,-0.00229091,-0.00654183,0.00652203,-0.01322191,-0.
 16173165,0.01632892,-0.12781281,0.51087114,-0.00026763,0.00060994,-0.0
 0026718,0.00118653,-0.00045600,-0.00002092,-0.00736920,-0.00072646,0.0
 0119712,0.01962123,-0.00243455,-0.00989966,0.00158604,0.00000959,-0.00
 303374,0.00138360,-0.00033609,0.00013262,0.00278492,-0.00393143,0.0010
 3621,-0.00008035,0.00017345,0.00004067,0.00081215,-0.00002981,-0.00025
 379,0.00001629,0.00006734,-0.00008097,0.00002632,0.00043810,-0.0000772
 6,0.00000558,0.00013199,0.00004055,0.00074425,0.00221784,0.00043095,-0
 .01439494,0.00749522,-0.01431833,0.01505696,-0.06616749,0.00895816,-0.
 16970792,0.12448267,0.00094668,0.00008159,0.00096884,-0.00026580,0.000
 35187,-0.00025910,0.00145519,-0.00110519,-0.00322243,0.00468310,-0.001
 20791,0.00626989,0.00067078,0.00004229,0.00286646,0.00036781,-0.000393
 02,0.00096967,-0.00746620,0.00377267,0.00107274,0.00003579,0.00005572,
 -0.00009662,-0.00031365,-0.00005334,-0.00119599,0.00034485,0.00008453,
 0.00018175,0.00002155,-0.00008617,0.00013584,-0.00003622,-0.00003938,-
 0.00006296,0.00133041,-0.00042239,0.00068266,-0.01124741,0.00826789,-0
 .00671533,-0.12386383,0.00726103,-0.26444762,0.08613332,0.01121810,0.3
 3893545,-0.00315089,-0.00038607,-0.00122807,0.00023696,-0.00105546,0.0
 0061302,0.00252940,-0.00192326,0.00319406,-0.00090160,0.00337875,-0.00
 390519,-0.00221214,0.00168558,-0.00273356,-0.00131592,0.00170607,-0.00
 159957,-0.01419744,0.00627701,0.01236040,0.00014513,-0.00049702,0.0001
 5659,0.00160881,0.00134895,0.00171563,-0.00020912,0.00011501,-0.000270
 24,-0.00017212,0.00025221,-0.00015833,-0.00046372,0.00034535,-0.000253
 42,0.00445363,-0.00104466,-0.00341267,-0.00327823,-0.00497017,0.019427
 72,-0.17708428,-0.09537751,0.16940369,0.01665051,0.00354797,-0.0084022
 5,0.19646507,-0.00087760,0.00150195,-0.00045270,0.00047897,-0.00052872
 ,0.00045146,-0.00354196,-0.00183427,-0.00025709,0.00399827,0.00090592,
 0.00055338,0.00136496,0.00028897,0.00080724,0.00070415,0.00016322,0.00
 025499,0.01026414,-0.01525606,-0.01012962,-0.00008525,0.00008126,-0.00
 005890,0.00160445,-0.00014372,0.00106375,-0.00005382,0.00012353,-0.000
 10329,-0.00012084,0.00030439,-0.00016428,0.00011634,0.00010531,0.00013
 758,-0.00004775,-0.00069427,-0.00021598,-0.01257859,-0.00476030,0.0197
 5680,-0.09989135,-0.15887840,0.15360604,-0.00195067,0.01173422,0.00662
 431,0.09495298,0.15913848,0.00173402,0.00011266,0.00180571,-0.00090570
 ,0.00078036,0.00030123,0.00489274,-0.00104648,-0.00808823,-0.00795531,
 0.00255520,0.00714021,0.00243570,-0.00108750,0.00768639,-0.00039017,-0
 .00029299,0.00184050,0.00515272,-0.00384843,-0.01884405,-0.00018231,0.
 00021464,-0.00035563,0.00010645,0.00014913,-0.00127069,0.00041162,0.00
 007334,0.00027679,-0.00008665,-0.00031751,0.00008422,-0.00022192,-0.00
 007562,-0.00007852,-0.00287307,-0.00091280,0.00418162,0.00600742,-0.00
 413254,-0.00298994,0.17449599,0.14465111,-0.34414102,0.00097685,0.0219
 7267,-0.03267857,-0.21296422,-0.16131944,0.39279873,-0.00059501,-0.000
 33169,-0.00015085,-0.00030542,-0.00017988,0.00019174,0.00455658,-0.000
 72669,0.00017923,-0.00537288,0.00223453,0.00209504,-0.00156958,0.00061
 954,0.00037179,-0.00120836,0.00087732,-0.00069227,0.00257995,-0.001895
 57,-0.00244278,0.00016730,-0.00029731,0.00006018,0.00053288,0.00050730
 ,0.00016670,0.00004751,0.00003765,-0.00004102,-0.00007096,-0.00009460,
 0.00003663,-0.00007286,0.00010415,-0.00008476,0.00191304,0.00139507,0.
 00013069,-0.00083345,-0.00250196,0.00120097,-0.24081321,0.10228654,0.0
 5770184,-0.03594087,0.02075965,-0.00065923,-0.01273135,0.01097091,0.01
 547782,0.30370312,0.00022640,0.00043275,0.00004441,0.00032724,0.000000
 23,-0.00003558,-0.00282173,-0.00024685,-0.00001458,0.00280697,-0.00010
 147,-0.00068562,0.00089675,0.00007138,-0.00018694,0.00063655,-0.000197
 14,0.00027050,-0.00168592,-0.00147738,0.00145433,-0.00013278,0.0000901
 2,-0.00003706,-0.00007211,-0.00034385,-0.00004922,-0.00001568,-0.00000
 391,0.00000744,0.00001980,0.00010744,-0.00003795,0.00007715,-0.0000501
 1,0.00003671,-0.00199619,-0.00715246,-0.00441426,0.02129582,-0.0060005
 8,-0.00714438,0.12149467,-0.13944385,-0.05567648,0.01461414,0.00153200
 ,0.00145883,0.00133644,0.01429446,0.00279583,-0.11656795,0.35372951,0.
 00066606,0.00012354,0.00049269,-0.00011736,0.00026328,-0.00009482,-0.0
 0002768,0.00009330,-0.00162465,-0.00141729,0.00107612,0.00292925,0.000
 65957,-0.00018465,0.00159528,0.00022445,-0.00027307,0.00053164,-0.0039
 7769,0.00178183,0.00076814,-0.00008908,0.00008026,-0.00009071,-0.00033
 142,-0.00019896,-0.00048711,0.00010529,-0.00000089,0.00009212,0.000016
 95,-0.00005320,0.00003221,0.00000914,-0.00006721,0.00000540,-0.0011330
 4,-0.00549256,-0.00136957,0.01354631,-0.00500152,0.00030114,0.08367199
 ,-0.06498983,-0.09256158,-0.02724019,0.01352856,0.00760938,0.02563397,
 -0.00809054,-0.00791162,-0.04159826,0.32196251,0.39325820,0.00003371,-
 0.00002274,-0.00004714,0.00005697,0.00002407,-0.00004981,-0.00084571,0
 .00029805,0.00022861,0.00113928,-0.00057298,-0.00070090,0.00019655,-0.
 00014406,-0.00031920,0.00023339,-0.00020001,0.00008097,-0.00003653,0.0
 0018601,0.00047280,-0.00003119,0.00006170,0.00000016,-0.00011841,-0.00
 002175,0.00007343,-0.00003856,-0.00000924,-0.00000180,0.00001877,0.000
 01504,-0.00001124,-0.00000213,-0.00001587,0.00002825,0.00018753,0.0005
 1506,0.00048950,-0.00193489,0.00074388,-0.00064568,-0.00634859,0.02506
 960,0.02579791,0.00244884,-0.00311694,-0.00198336,-0.00316448,-0.00107
 576,-0.00009970,-0.02077903,-0.04159795,-0.05349779,0.03056234,-0.0001
 1712,-0.00017597,-0.00001336,-0.00011824,-0.00001489,0.00002289,0.0011
 9180,0.00001799,-0.00009698,-0.00146866,0.00051241,0.00068240,-0.00037
 524,0.00007671,0.00017513,-0.00028587,0.00012376,-0.00010167,0.0005364
 6,-0.00024223,-0.00056472,0.00004037,-0.00005250,0.00000580,0.00009633
 ,0.00019510,0.00003628,0.00001307,0.00001329,-0.00000389,-0.00001228,-
 0.00003556,0.00001478,-0.00004272,0.00003260,-0.00000906,-0.00074242,-
 0.00099080,-0.00027070,0.00420516,0.00022499,-0.00109846,0.00416808,-0
 .01522080,-0.01434067,-0.00604085,0.00261074,0.00060256,-0.00472757,0.
 00038928,0.00330633,-0.01705679,-0.21829719,-0.25089299,0.01928668,0.2
 3147462,-0.00015214,-0.00001193,-0.00011576,-0.00001447,-0.00006121,0.
 00005610,0.00056140,-0.00010726,0.00029531,-0.00051809,0.00010647,-0.0
 0008869,-0.00026676,0.00007834,-0.00016635,-0.00017823,0.00014857,-0.0
 0017874,0.00084223,-0.00031370,-0.00026268,0.00003211,-0.00004235,0.00
 002493,0.00012193,0.00004148,0.00009171,-0.00001559,0.00000224,-0.0000
 2027,-0.00001323,-0.00000501,-0.00000369,0.00001139,0.00001544,0.00000
 567,0.00027752,0.00109569,0.00056474,-0.00191710,0.00126701,0.00149934
 ,0.00153953,-0.00767173,-0.00523332,-0.00314555,0.00175845,-0.00241417
 ,-0.00040720,0.00136182,0.00122426,-0.02621911,-0.26072264,-0.29975944
 ,0.02938102,0.26318768,0.30490362,-0.00005639,0.00020108,-0.00025280,0
 .00085756,-0.00018702,-0.00024113,-0.00620343,0.00014277,0.00110637,0.
 00130158,0.00244167,-0.00067169,0.00090485,0.00050090,-0.00127414,0.00
 093854,-0.00039560,0.00028099,0.00251896,-0.00200941,0.00344526,-0.000
 17149,0.00016891,-0.00001450,0.00005643,-0.00014629,0.00002687,-0.0000
 7598,0.00001809,-0.00003345,0.00006271,0.00030256,-0.00005440,0.000029
 20,0.00002118,0.00005324,-0.19392267,0.06072486,-0.15558846,-0.0211374
 7,0.00948692,-0.01639043,0.00244379,0.00267865,0.00038897,-0.00191984,
 0.00011699,-0.00022501,-0.00144371,-0.00059235,0.00011954,-0.00021602,
 -0.00073529,-0.00024740,0.00011222,-0.00001853,0.00007452,0.22344603,0
 .00006308,0.00012740,-0.00010175,0.00076430,-0.00015779,-0.00036763,-0
 .00441805,0.00213013,0.00135122,0.00450078,0.00005078,0.00047732,0.000
 68253,-0.00074451,-0.00092452,0.00079333,-0.00100157,0.00035597,-0.000
 27859,-0.00154907,0.00346425,0.00012576,0.00026792,0.00000878,-0.00002
 710,-0.00014181,-0.00000192,-0.00005598,-0.00004222,-0.00001033,0.0000
 8531,0.00028119,-0.00004084,0.00001928,0.00000402,0.00005108,0.0841596
 4,-0.07654206,0.05918622,0.01161695,-0.00619296,0.01572276,0.00539400,
 -0.00126910,0.00222692,-0.00143907,0.00086349,-0.00037150,-0.00117083,
 -0.00021746,-0.00041353,-0.00071773,-0.00007085,-0.00028211,0.00007151
 ,-0.00007990,-0.00009473,-0.07680486,0.07897767,-0.00007817,-0.0000692
 4,-0.00010936,0.00025376,-0.00010609,-0.00013266,-0.00099904,0.0007792
 1,0.00179033,-0.00040196,-0.00033150,-0.00345854,-0.00046488,-0.000575
 98,-0.00106276,0.00009917,0.00010487,-0.00034495,0.00106780,0.00343749
 ,-0.00225090,0.00000216,-0.00002008,0.00009889,-0.00001115,-0.00002551
 ,0.00003437,-0.00002815,-0.00004718,-0.00001994,0.00003281,0.00010244,
 0.00001057,0.00001924,0.00000763,0.00000013,-0.19420282,0.04950318,-0.
 21997884,0.01837385,-0.00550844,0.01150159,0.00147163,0.00001776,0.003
 01902,-0.00081052,0.00122683,-0.00115982,0.00010371,-0.00030502,-0.000
 47127,-0.00014321,-0.00020650,-0.00048885,0.00005835,-0.00008110,0.000
 03563,0.17826936,-0.05176746,0.22391847,-0.00006837,-0.00004534,-0.000
 11418,0.00004178,-0.00003846,-0.00001866,-0.00012707,0.00006022,0.0005
 3305,0.00029430,-0.00017115,-0.00063634,-0.00014626,-0.00002781,-0.000
 39419,0.00000202,0.00005079,-0.00013647,0.00023726,0.00058713,0.000299
 54,0.00000485,-0.00001481,0.00003047,-0.00001749,-0.00000577,0.0000379
 9,-0.00002206,-0.00000903,-0.00001461,0.00000533,0.00001353,-0.0000018
 9,0.00000607,0.00000971,0.00000159,-0.01574835,-0.00398230,0.02284121,
 -0.08090946,-0.04540051,0.07736513,-0.00481775,-0.00725112,0.00794831,
 0.00112179,0.00139887,-0.00073131,-0.00028306,-0.00177307,0.00019740,-
 0.00005756,0.00056844,-0.00076872,0.00013270,-0.00023509,-0.00010236,0
 .00083362,-0.00077333,0.00076003,0.09043756,-0.00010520,0.00007892,-0.
 00003621,0.00005268,-0.00004374,0.00004521,-0.00026263,-0.00011668,-0.
 00002182,0.00027680,0.00020612,-0.00005260,0.00007732,0.00009321,-0.00
 003440,0.00002985,0.00001715,0.00000685,0.00065144,-0.00149866,-0.0005
 4199,-0.00000850,0.00000591,-0.00000744,0.00013620,0.00002793,0.000122
 05,-0.00000925,0.00000916,-0.00001163,-0.00000862,0.00002652,-0.000014
 86,-0.00000034,0.00000842,0.00000435,0.01424999,0.00826098,-0.02084450
 ,-0.04834740,-0.10832978,0.10468586,-0.00612870,-0.00714978,0.02315047
 ,0.00131139,0.00164629,-0.00174535,-0.00551881,-0.00558094,0.00078715,
 0.00111031,0.00038462,-0.00209777,0.00024751,-0.00002663,-0.00028981,-
 0.00147445,0.00102139,-0.00003200,0.04559800,0.11097673,-0.00000473,0.
 00007314,0.00001879,0.00003298,-0.00000780,0.00001843,-0.00026476,-0.0
 0009447,-0.00015472,0.00015665,0.00026645,0.00018143,0.00014400,0.0000
 5223,0.00010429,0.00005740,-0.00000950,0.00005271,-0.00022792,-0.00097
 630,-0.00013092,-0.00002423,0.00001242,-0.00001241,0.00005727,-0.00000
 148,0.00002707,0.00000212,0.00000796,0.00000124,-0.00000335,0.00001412
 ,-0.00000730,0.00000075,-0.00000055,0.00000777,0.01143599,0.00005048,-
 0.00962762,0.07455237,0.09767361,-0.20889964,-0.00163267,-0.00143356,0
 .00476991,-0.00005513,0.00047286,-0.00035166,-0.00255109,-0.00299943,0
 .00191215,-0.00020028,0.00014177,-0.00014353,0.00012397,0.00022303,-0.
 00004652,-0.00107437,-0.00072960,0.00080286,-0.08887138,-0.10401426,0.
 22639910,0.00005441,-0.00002907,0.00004300,-0.00007115,0.00003314,0.00
 000490,0.00039254,0.00005456,-0.00016551,-0.00035736,-0.00032331,0.000
 01959,-0.00000846,-0.00008640,0.00016045,-0.00005164,-0.00001647,0.000
 01891,-0.00072537,0.00056732,-0.00031183,0.00001342,0.00000325,-0.0000
 0242,-0.00003825,0.00000110,-0.00003771,0.00000981,-0.00000390,0.00000
 838,-0.00000207,-0.00002596,0.00000733,-0.00000221,-0.00000544,-0.0000
 0246,-0.02132503,0.00498285,-0.01296857,-0.18697617,0.03010533,-0.1289
 3817,-0.00902649,0.00019674,-0.00831876,0.00006490,-0.00107756,-0.0004
 0541,0.00175101,-0.00011870,0.00107805,0.00001561,0.00080047,0.0013135
 1,0.00008229,-0.00010584,-0.00002197,-0.00166773,0.00240914,0.00316546
 ,0.00939468,-0.00167958,0.00780218,0.20739405,0.00004148,0.00000358,0.
 00005691,-0.00000237,0.00001144,-0.00000022,0.00012183,-0.00011146,-0.
 00021357,-0.00028363,0.00054717,0.00054060,0.00002853,0.00005679,0.000
 21186,-0.00003072,0.00004327,0.00002916,-0.00036275,-0.00014278,-0.000
 07886,-0.00001834,-0.00000768,-0.00000931,0.00001759,0.00002222,-0.000
 06482,0.00001919,0.00000668,0.00000923,-0.00000231,-0.00000271,0.00000
 489,-0.00000695,0.00000223,-0.00000299,0.01962714,-0.00444879,0.010944
 70,0.01812346,-0.04747872,0.01977646,-0.01729294,0.00823897,-0.0159874
 7,-0.00394575,-0.00522886,-0.00418518,0.00239554,-0.00079190,0.0022897
 0,0.00143048,0.00054721,0.00193342,-0.00022319,0.00037612,0.00001450,0
 .00245167,-0.00224744,-0.00249653,0.01184488,-0.00155785,0.01117913,-0
 .03531131,0.05217184,0.00000908,-0.00000402,0.00001076,0.00000377,0.00
 000108,-0.00000764,0.00004788,-0.00004610,-0.00005052,-0.00012089,0.00
 028464,0.00027117,-0.00001982,0.00004522,0.00005106,-0.00002216,0.0000
 2385,0.00000162,0.00000480,-0.00002950,0.00020421,-0.00000184,-0.00000
 943,-0.00000278,0.00000636,0.00000845,-0.00002850,0.00000700,0.0000029
 9,0.00000200,-0.00000076,0.00000070,0.00000225,-0.00000055,0.00000241,
 -0.00000202,0.01616229,-0.00318689,0.01231445,-0.13454987,0.02686150,-
 0.16610872,-0.00541104,0.00393513,-0.00693178,-0.00130194,-0.00212326,
 -0.00004494,0.00071679,-0.00000775,0.00047311,0.00102034,-0.00016311,0
 .00045284,0.00007039,0.00006398,-0.00005107,0.00310708,-0.00234241,-0.
 00097912,-0.01755038,0.00108428,-0.01464986,0.13785782,-0.02470097,0.1
 7418064,0.00002569,-0.00001411,0.00004036,-0.00024354,0.00008461,0.000
 17142,0.00131051,-0.00079408,-0.00091995,-0.00237181,-0.00059911,-0.00
 054783,-0.00005901,0.00043803,0.00048119,-0.00019303,0.00027687,0.0000
 0358,-0.00018888,-0.00102975,-0.00104795,-0.00005919,-0.00007670,-0.00
 003944,-0.00000962,0.00002687,-0.00000275,0.00002060,0.00003487,0.0000
 0469,-0.00002992,-0.00009899,0.00001377,0.00000232,-0.00000181,-0.0000
 0009,-0.11158071,-0.12599568,-0.07291657,0.00724660,0.02939115,0.01516
 816,-0.00500366,-0.00051117,0.00146498,0.00115157,-0.00012260,0.000373
 91,0.00096537,-0.00011787,-0.00055564,-0.00032203,0.00213875,0.0011822
 6,-0.00015503,0.00031866,-0.00019011,-0.00896778,-0.02522519,-0.006084
 77,0.00042560,0.00001612,0.00029666,0.00098824,-0.00011705,-0.00067936
 ,0.11738211,0.00004210,0.00004760,0.00003352,0.00006540,0.00000571,-0.
 00000503,-0.00038228,0.00009856,-0.00013343,0.00050466,0.00041211,0.00
 016442,0.00018569,-0.00005210,0.00008319,0.00010308,-0.00010879,0.0000
 9412,-0.00079420,-0.00130994,-0.00061192,-0.00001082,0.00005076,-0.000
 01009,0.00001514,-0.00001026,0.00000213,0.00000479,0.00000216,0.000005
 86,0.00000792,0.00001957,-0.00000400,0.00000232,0.00000101,0.00001812,
 -0.12013722,-0.31935067,-0.13528333,-0.00699793,-0.01748196,-0.0046328
 5,0.00319849,0.00049936,0.00006629,-0.00051609,0.00033034,-0.00014326,
 -0.00039535,-0.00008512,0.00030883,0.00013104,-0.00108674,-0.00096370,
 0.00012109,-0.00021208,0.00018949,0.00416392,0.00792823,0.00764558,-0.
 00051708,0.00154842,0.00031029,-0.00045659,0.00060442,0.00055191,0.121
 55723,0.32840203,0.00002185,0.00000245,0.00002328,-0.00005996,0.000031
 20,-0.00002798,-0.00022223,-0.00009822,0.00016385,-0.00013535,-0.00024
 437,0.00007087,0.00009163,-0.00016790,-0.00014131,0.00007425,0.0000142
 0,-0.00005095,0.00015457,0.00163964,0.00150001,-0.00002703,-0.00000360
 ,0.00002824,-0.00003599,-0.00002842,-0.00001722,-0.00000410,-0.0000133
 5,0.00000294,-0.00000037,-0.00001211,-0.00000428,-0.00000457,-0.000013
 86,-0.00000980,-0.05198351,-0.09523207,-0.07063909,-0.00214933,-0.0160
 8291,-0.00826967,0.00228511,0.00032608,-0.00145489,0.00011961,0.000165
 72,0.00028672,-0.00006104,0.00096796,0.00000637,-0.00016761,-0.0002436
 2,0.00004151,-0.00000732,-0.00009229,0.00013786,-0.00975972,-0.0241352
 0,-0.01076321,-0.00103864,-0.00040241,-0.00025403,-0.00036738,0.001060
 36,0.00113293,0.06343532,0.13242990,0.08821636,-0.00040615,0.00101162,
 -0.00101228,0.00176478,-0.00067544,-0.00022998,-0.02507117,0.00138173,
 0.00515734,0.01295810,-0.00604251,-0.01338102,0.00469093,-0.00099239,-
 0.00826503,0.00366355,-0.00208488,0.00102062,0.00822987,-0.00343314,0.
 00323790,-0.00019867,0.00072806,-0.00002265,0.00048593,-0.00098930,0.0
 0052538,-0.00039724,-0.00010615,-0.00028575,0.00014409,0.00077779,-0.0
 0030638,0.00016856,0.00005935,0.00012551,-0.00222339,0.00020035,0.0007
 4006,0.00393070,-0.00234308,0.00206667,-0.02993806,0.00900977,-0.03485
 442,-0.29653396,0.12708980,0.05923630,-0.00419784,-0.00162959,0.013148
 37,0.00737259,-0.00161400,0.00341639,-0.00175004,0.00149061,0.00032025
 ,0.00227705,0.00022510,-0.00045265,-0.00074012,-0.00021414,0.00024757,
 0.00009098,0.00149550,0.00064502,-0.00033442,0.00010469,-0.00015817,0.
 31601392,0.00021227,-0.00052532,0.00019475,-0.00177420,0.00052315,0.00
 012166,0.01084292,-0.00003304,-0.00100184,-0.00874999,-0.00596055,0.00
 471953,-0.00276815,0.00077783,0.00423429,-0.00190863,0.00070687,-0.000
 26837,-0.00339199,0.00306103,-0.00135629,0.00009332,-0.00030327,-0.000
 01405,-0.00094858,-0.00051586,0.00064775,-0.00011583,-0.00015325,0.000
 05464,-0.00006007,-0.00062225,0.00005401,0.00009807,-0.00022744,-0.000
 09790,0.00074243,-0.00063977,-0.00027568,-0.00183143,0.00055517,-0.001
 48949,0.00991027,-0.00041342,0.01543993,0.12554447,-0.07503256,-0.0300
 6867,-0.00027515,-0.00025984,-0.00655012,-0.00209432,0.00328267,-0.002
 25382,0.00036029,-0.00069905,0.00005319,-0.00105640,-0.00139549,-0.001
 25238,0.00011329,-0.00000771,-0.00021054,0.00008621,-0.00061374,-0.000
 25272,0.00042093,-0.00025262,0.00013281,-0.12344974,0.07874844,-0.0002
 9524,-0.00061482,0.00012654,-0.00092720,0.00013408,0.00058745,0.009137
 00,0.00065073,-0.00072699,-0.00700205,0.00106423,-0.00380417,-0.002010
 00,0.00020523,0.00295450,-0.00286002,0.00156976,-0.00123514,-0.0012237
 6,0.00054093,-0.00371304,-0.00005437,-0.00037761,-0.00008240,0.0002891
 5,0.00075203,0.00021437,-0.00009911,-0.00010257,-0.00001643,-0.0001495
 3,-0.00043334,-0.00000661,-0.00014975,-0.00001945,-0.00006978,0.000918
 68,-0.00020211,-0.00041617,-0.00090966,0.00033844,-0.00126344,-0.02786
 513,0.01137743,0.00852685,0.06544536,-0.03210437,-0.04733018,0.0046212
 5,-0.00148133,-0.00290176,-0.00623359,0.00144562,-0.00357791,0.0005585
 7,-0.00075497,-0.00049847,-0.00104471,-0.00126100,0.00000836,0.0003644
 0,0.00026081,-0.00001752,0.00006061,-0.00031100,-0.00024008,0.00034816
 ,-0.00011606,0.00002151,-0.03091906,0.01943932,0.05346054\\0.00001311,
 0.00000736,-0.00001077,0.00001457,0.00000974,-0.00000471,0.00002190,0.
 00000388,0.00002159,-0.00000057,0.00000404,0.00000857,-0.00000404,-0.0
 0000533,-0.00002070,-0.00004743,-0.00001886,0.00000002,0.00000159,0.00
 000793,-0.00000114,0.00002422,0.00001546,-0.00001515,-0.00001638,-0.00
 001797,-0.00000346,-0.00000913,-0.00000221,0.00000346,-0.00000418,0.00
 000495,-0.00000647,0.00000145,0.00000057,0.00001089,-0.00001836,-0.000
 00334,0.00004179,0.00000636,-0.00000580,-0.00000392,-0.00000180,0.0000
 0345,-0.00001071,-0.00001771,-0.00002800,0.00001988,-0.00000866,0.0000
 0371,0.00001598,0.00001635,0.00000363,-0.00000766,-0.00000573,-0.00001
 151,0.00000884,-0.00000731,-0.00000176,-0.00000539,0.00000109,0.000000
 24,0.00000160,0.00000482,0.00000109,-0.00000718,0.00001429,0.00001180,
 -0.00002578,0.00002154,0.00001695,-0.00000958\\\@
 The archive entry for this job was punched.


 I DO NOT KNOW WHAT I MAY APPEAR TO THE WORLD; BUT TO MYSELF
 I SEEM TO HAVE BEEN ONLY LIKE A BOY PLAYING ON THE SEASHORE,
 AND DIVERTING MYSELF IN NOW AND THEN FINDING A SMOOTHER PEBBLE
 OR A PRETTIER SHELL THAN ORDINARY, WHILST THE GREAT OCEAN OF
 TRUTH LAY ALL UNDISCOVERED BEFORE ME.
                                          -- NEWTON (1642-1726)
 Job cpu time:       0 days 12 hours 45 minutes 14.7 seconds.
 Elapsed time:       0 days  0 hours 17 minutes  6.1 seconds.
 File lengths (MBytes):  RWF=    997 Int=      0 D2E=      0 Chk=     28 Scr=      1
 Normal termination of Gaussian 16 at Thu Sep  5 13:03:02 2024.
