 Entering Gaussian System, Link 0=g16
 Initial command:
 /apps/gaussian/g16c01/g16/l1.exe "/jobfs/124198192.gadi-pbs/Gau-218585.inp" -scrdir="/jobfs/124198192.gadi-pbs/"
 Entering Link 1 = /apps/gaussian/g16c01/g16/l1.exe PID=    218586.
  
 Copyright (c) 1988-2019, Gaussian, Inc.  All Rights Reserved.
  
 This is part of the Gaussian(R) 16 program.  It is based on
 the Gaussian(R) 09 system (copyright 2009, Gaussian, Inc.),
 the Gaussian(R) 03 system (copyright 2003, Gaussian, Inc.),
 the Gaussian(R) 98 system (copyright 1998, Gaussian, Inc.),
 the Gaussian(R) 94 system (copyright 1995, Gaussian, Inc.),
 the Gaussian 92(TM) system (copyright 1992, Gaussian, Inc.),
 the Gaussian 90(TM) system (copyright 1990, Gaussian, Inc.),
 the Gaussian 88(TM) system (copyright 1988, Gaussian, Inc.),
 the Gaussian 86(TM) system (copyright 1986, Carnegie Mellon
 University), and the Gaussian 82(TM) system (copyright 1983,
 Carnegie Mellon University). Gaussian is a federally registered
 trademark of Gaussian, Inc.
  
 This software contains proprietary and confidential information,
 including trade secrets, belonging to Gaussian, Inc.
  
 This software is provided under written license and may be
 used, copied, transmitted, or stored only in accord with that
 written license.
  
 The following legend is applicable only to US Government
 contracts under FAR:
  
                    RESTRICTED RIGHTS LEGEND
  
 Use, reproduction and disclosure by the US Government is
 subject to restrictions as set forth in subparagraphs (a)
 and (c) of the Commercial Computer Software - Restricted
 Rights clause in FAR 52.227-19.
  
 Gaussian, Inc.
 340 Quinnipiac St., Bldg. 40, Wallingford CT 06492
  
  
 ---------------------------------------------------------------
 Warning -- This program may not be used in any manner that
 competes with the business of Gaussian, Inc. or will provide
 assistance to any competitor of Gaussian, Inc.  The licensee
 of this program is prohibited from giving any competitor of
 Gaussian, Inc. access to this program.  By using this program,
 the user acknowledges that Gaussian, Inc. is engaged in the
 business of creating and licensing software in the field of
 computational chemistry and represents and warrants to the
 licensee that it is not a competitor of Gaussian, Inc. and that
 it will not use this program in any manner prohibited above.
 ---------------------------------------------------------------
  

 Cite this work as:
 Gaussian 16, Revision C.01,
 M. J. Frisch, G. W. Trucks, H. B. Schlegel, G. E. Scuseria, 
 M. A. Robb, J. R. Cheeseman, G. Scalmani, V. Barone, 
 G. A. Petersson, H. Nakatsuji, X. Li, M. Caricato, A. V. Marenich, 
 J. Bloino, B. G. Janesko, R. Gomperts, B. Mennucci, H. P. Hratchian, 
 J. V. Ortiz, A. F. Izmaylov, J. L. Sonnenberg, D. Williams-Young, 
 F. Ding, F. Lipparini, F. Egidi, J. Goings, B. Peng, A. Petrone, 
 T. Henderson, D. Ranasinghe, V. G. Zakrzewski, J. Gao, N. Rega, 
 G. Zheng, W. Liang, M. Hada, M. Ehara, K. Toyota, R. Fukuda, 
 J. Hasegawa, M. Ishida, T. Nakajima, Y. Honda, O. Kitao, H. Nakai, 
 T. Vreven, K. Throssell, J. A. Montgomery, Jr., J. E. Peralta, 
 F. Ogliaro, M. J. Bearpark, J. J. Heyd, E. N. Brothers, K. N. Kudin, 
 V. N. Staroverov, T. A. Keith, R. Kobayashi, J. Normand, 
 K. Raghavachari, A. P. Rendell, J. C. Burant, S. S. Iyengar, 
 J. Tomasi, M. Cossi, J. M. Millam, M. Klene, C. Adamo, R. Cammi, 
 J. W. Ochterski, R. L. Martin, K. Morokuma, O. Farkas, 
 J. B. Foresman, and D. J. Fox, Gaussian, Inc., Wallingford CT, 2019.
 
 ******************************************
 Gaussian 16:  ES64L-G16RevC.01  3-Jul-2019
                 5-Sep-2024 
 ******************************************
 %mem=60gb
 %nprocs=48
 Will use up to   48 processors via shared memory.
 %RWF=/scratch/gy60/or4187/rwf/AMPA.a.Ca.CONF1.B3LYP.rwf
 %NoSave
 %Chk=AMPA.a.Ca.CONF1.B3LYP.chk
 ----------------------------------------------------------------------
 #UM06/Def2TZVP OPT Freq=Noraman INT(grid=ultrafine) EmpiricalDispersio
 n=GD3 SCF=XQC Pop=NPA
 ----------------------------------------------------------------------
 1/18=20,19=15,26=4,38=1/1,3;
 2/9=110,12=2,17=6,18=5,40=1/2;
 3/5=44,7=101,11=2,25=1,30=1,71=1,74=-54,75=-5,116=2,124=31/1,2,3;
 4//1;
 5/5=2,8=3,13=1,38=5/2,8;
 6/7=2,8=2,9=2,10=2,28=1,40=-1/1,7;
 7//1,2,3,16;
 1/18=20,19=15,26=4/3(2);
 2/9=110/2;
 99//99;
 2/9=110/2;
 3/5=44,7=101,11=2,25=1,30=1,71=1,74=-54,75=-5,116=2,124=31/1,2,3;
 4/5=5,16=3,69=1/1;
 5/5=2,8=3,13=1,38=5/2,8;
 7//1,2,3,16;
 1/18=20,19=15,26=4/3(-5);
 2/9=110/2;
 6/7=2,8=2,9=2,10=2,19=2,28=1,40=-1/1,7;
 99/9=1/99;
 -----------------------------
 AMPA.a.Ca.CONF1.B3LYP.optfreq
 -----------------------------
 Symbolic Z-matrix:
 Charge =  1 Multiplicity = 1
 N                    -1.82387  -1.67545   1.21791 
 C                    -2.84581  -0.57977   1.12766 
 P                    -2.25161   0.47765  -0.24204 
 O                    -2.28344  -0.37239  -1.51952 
 O                    -0.78032   0.80152   0.0984 
 O                    -3.21434   1.76107  -0.27898 
 Ca                   -0.27286  -1.45918  -0.91156 
 H                    -3.55012   1.98398  -1.16469 
 H                    -2.27668  -2.53158   1.53647 
 H                    -3.81322  -1.00655   0.85256 
 H                    -2.95951  -0.02993   2.06707 
 H                    -1.14779  -1.43703   1.94489 
 N                     1.33305   0.257    -2.03147 
 C                     2.58408   0.47292  -1.25436 
 P                     2.28748   0.00101   0.48823 
 O                     3.75525   0.00192   1.10697 
 O                     1.55072  -1.32513   0.49952 
 O                     1.52916   1.16471   1.26015 
 H                     0.55388   1.19447   1.01636 
 H                     1.55893   0.27776  -3.02624 
 H                     3.36081  -0.19739  -1.6349 
 H                     2.96019   1.5002   -1.31018 
 H                     0.7042    1.04914  -1.87332 
 H                     3.82064   0.17176   2.06375 
 

 GradGradGradGradGradGradGradGradGradGradGradGradGradGradGradGradGradGrad
 Berny optimization.
 Initialization pass.
                           ----------------------------
                           !    Initial Parameters    !
                           ! (Angstroms and Degrees)  !
 --------------------------                            --------------------------
 ! Name  Definition              Value          Derivative Info.                !
 --------------------------------------------------------------------------------
 ! R1    R(1,2)                  1.501          estimate D2E/DX2                !
 ! R2    R(1,7)                  2.6433         estimate D2E/DX2                !
 ! R3    R(1,9)                  1.0195         estimate D2E/DX2                !
 ! R4    R(1,12)                 1.021          estimate D2E/DX2                !
 ! R5    R(2,3)                  1.8296         estimate D2E/DX2                !
 ! R6    R(2,10)                 1.0926         estimate D2E/DX2                !
 ! R7    R(2,11)                 1.0944         estimate D2E/DX2                !
 ! R8    R(3,4)                  1.5348         estimate D2E/DX2                !
 ! R9    R(3,5)                  1.5445         estimate D2E/DX2                !
 ! R10   R(3,6)                  1.6048         estimate D2E/DX2                !
 ! R11   R(3,7)                  2.8487         estimate D2E/DX2                !
 ! R12   R(4,7)                  2.365          estimate D2E/DX2                !
 ! R13   R(5,7)                  2.5275         estimate D2E/DX2                !
 ! R14   R(6,8)                  0.9731         estimate D2E/DX2                !
 ! R15   R(7,13)                 2.6035         estimate D2E/DX2                !
 ! R16   R(7,15)                 3.263          estimate D2E/DX2                !
 ! R17   R(7,17)                 2.3097         estimate D2E/DX2                !
 ! R18   R(13,14)                1.4885         estimate D2E/DX2                !
 ! R19   R(13,20)                1.0203         estimate D2E/DX2                !
 ! R20   R(13,23)                1.0237         estimate D2E/DX2                !
 ! R21   R(14,15)                1.8296         estimate D2E/DX2                !
 ! R22   R(14,21)                1.0943         estimate D2E/DX2                !
 ! R23   R(14,22)                1.0954         estimate D2E/DX2                !
 ! R24   R(15,16)                1.5929         estimate D2E/DX2                !
 ! R25   R(15,17)                1.5171         estimate D2E/DX2                !
 ! R26   R(15,18)                1.5891         estimate D2E/DX2                !
 ! R27   R(16,24)                0.9739         estimate D2E/DX2                !
 ! R28   R(18,19)                1.0057         estimate D2E/DX2                !
 ! A1    A(2,1,7)              106.9376         estimate D2E/DX2                !
 ! A2    A(2,1,9)              109.2307         estimate D2E/DX2                !
 ! A3    A(2,1,12)             108.8563         estimate D2E/DX2                !
 ! A4    A(7,1,9)              125.5218         estimate D2E/DX2                !
 ! A5    A(7,1,12)              99.5535         estimate D2E/DX2                !
 ! A6    A(9,1,12)             105.5276         estimate D2E/DX2                !
 ! A7    A(1,2,3)              104.2287         estimate D2E/DX2                !
 ! A8    A(1,2,10)             109.4414         estimate D2E/DX2                !
 ! A9    A(1,2,11)             112.6971         estimate D2E/DX2                !
 ! A10   A(3,2,10)             108.9557         estimate D2E/DX2                !
 ! A11   A(3,2,11)             112.7051         estimate D2E/DX2                !
 ! A12   A(10,2,11)            108.6861         estimate D2E/DX2                !
 ! A13   A(2,3,4)              107.2355         estimate D2E/DX2                !
 ! A14   A(2,3,5)              105.4001         estimate D2E/DX2                !
 ! A15   A(2,3,6)              106.5363         estimate D2E/DX2                !
 ! A16   A(2,3,7)               90.492          estimate D2E/DX2                !
 ! A17   A(4,3,5)              108.6243         estimate D2E/DX2                !
 ! A18   A(4,3,6)              114.289          estimate D2E/DX2                !
 ! A19   A(5,3,6)              114.1321         estimate D2E/DX2                !
 ! A20   A(6,3,7)              162.7539         estimate D2E/DX2                !
 ! A21   A(3,6,8)              114.2771         estimate D2E/DX2                !
 ! A22   A(1,7,3)               57.2282         estimate D2E/DX2                !
 ! A23   A(1,7,4)               75.277          estimate D2E/DX2                !
 ! A24   A(1,7,5)               68.4976         estimate D2E/DX2                !
 ! A25   A(1,7,13)             139.6756         estimate D2E/DX2                !
 ! A26   A(1,7,15)              98.7099         estimate D2E/DX2                !
 ! A27   A(1,7,17)              88.6159         estimate D2E/DX2                !
 ! A28   A(3,7,13)              94.6678         estimate D2E/DX2                !
 ! A29   A(3,7,15)              98.0455         estimate D2E/DX2                !
 ! A30   A(3,7,17)             111.431          estimate D2E/DX2                !
 ! A31   A(4,7,5)               61.3805         estimate D2E/DX2                !
 ! A32   A(4,7,13)              96.367          estimate D2E/DX2                !
 ! A33   A(4,7,15)             124.8701         estimate D2E/DX2                !
 ! A34   A(4,7,17)             143.284          estimate D2E/DX2                !
 ! A35   A(5,7,13)              72.9105         estimate D2E/DX2                !
 ! A36   A(5,7,15)              65.5346         estimate D2E/DX2                !
 ! A37   A(5,7,17)              82.0957         estimate D2E/DX2                !
 ! A38   A(13,7,15)             53.5266         estimate D2E/DX2                !
 ! A39   A(13,7,17)             74.7836         estimate D2E/DX2                !
 ! A40   A(7,13,14)            112.9212         estimate D2E/DX2                !
 ! A41   A(7,13,20)            124.7051         estimate D2E/DX2                !
 ! A42   A(7,13,23)             93.7102         estimate D2E/DX2                !
 ! A43   A(14,13,20)           108.6627         estimate D2E/DX2                !
 ! A44   A(14,13,23)           108.8683         estimate D2E/DX2                !
 ! A45   A(20,13,23)           105.7158         estimate D2E/DX2                !
 ! A46   A(13,14,15)           108.8804         estimate D2E/DX2                !
 ! A47   A(13,14,21)           109.0364         estimate D2E/DX2                !
 ! A48   A(13,14,22)           113.4546         estimate D2E/DX2                !
 ! A49   A(15,14,21)           106.756          estimate D2E/DX2                !
 ! A50   A(15,14,22)           110.2484         estimate D2E/DX2                !
 ! A51   A(21,14,22)           108.2417         estimate D2E/DX2                !
 ! A52   A(7,15,14)             80.4465         estimate D2E/DX2                !
 ! A53   A(7,15,16)            152.8664         estimate D2E/DX2                !
 ! A54   A(7,15,18)             99.3029         estimate D2E/DX2                !
 ! A55   A(14,15,16)           102.7355         estimate D2E/DX2                !
 ! A56   A(14,15,17)           108.1366         estimate D2E/DX2                !
 ! A57   A(14,15,18)           110.5579         estimate D2E/DX2                !
 ! A58   A(16,15,17)           116.4304         estimate D2E/DX2                !
 ! A59   A(16,15,18)           104.5146         estimate D2E/DX2                !
 ! A60   A(17,15,18)           113.8769         estimate D2E/DX2                !
 ! A61   A(15,16,24)           116.332          estimate D2E/DX2                !
 ! A62   A(15,18,19)           111.5115         estimate D2E/DX2                !
 ! D1    D(7,1,2,3)            -10.2138         estimate D2E/DX2                !
 ! D2    D(7,1,2,10)           106.2021         estimate D2E/DX2                !
 ! D3    D(7,1,2,11)          -132.74           estimate D2E/DX2                !
 ! D4    D(9,1,2,3)           -148.7598         estimate D2E/DX2                !
 ! D5    D(9,1,2,10)           -32.344          estimate D2E/DX2                !
 ! D6    D(9,1,2,11)            88.7139         estimate D2E/DX2                !
 ! D7    D(12,1,2,3)            96.4851         estimate D2E/DX2                !
 ! D8    D(12,1,2,10)         -147.0991         estimate D2E/DX2                !
 ! D9    D(12,1,2,11)          -26.0411         estimate D2E/DX2                !
 ! D10   D(2,1,7,3)              7.5439         estimate D2E/DX2                !
 ! D11   D(2,1,7,4)            -22.3567         estimate D2E/DX2                !
 ! D12   D(2,1,7,5)             42.2534         estimate D2E/DX2                !
 ! D13   D(2,1,7,13)            60.0352         estimate D2E/DX2                !
 ! D14   D(2,1,7,15)           101.5448         estimate D2E/DX2                !
 ! D15   D(2,1,7,17)           124.3021         estimate D2E/DX2                !
 ! D16   D(9,1,7,3)            137.3686         estimate D2E/DX2                !
 ! D17   D(9,1,7,4)            107.4679         estimate D2E/DX2                !
 ! D18   D(9,1,7,5)            172.078          estimate D2E/DX2                !
 ! D19   D(9,1,7,13)          -170.1402         estimate D2E/DX2                !
 ! D20   D(9,1,7,15)          -128.6305         estimate D2E/DX2                !
 ! D21   D(9,1,7,17)          -105.8732         estimate D2E/DX2                !
 ! D22   D(12,1,7,3)          -105.6509         estimate D2E/DX2                !
 ! D23   D(12,1,7,4)          -135.5515         estimate D2E/DX2                !
 ! D24   D(12,1,7,5)           -70.9414         estimate D2E/DX2                !
 ! D25   D(12,1,7,13)          -53.1596         estimate D2E/DX2                !
 ! D26   D(12,1,7,15)          -11.6499         estimate D2E/DX2                !
 ! D27   D(12,1,7,17)           11.1074         estimate D2E/DX2                !
 ! D28   D(1,2,3,4)             63.5093         estimate D2E/DX2                !
 ! D29   D(1,2,3,5)            -52.103          estimate D2E/DX2                !
 ! D30   D(1,2,3,6)           -173.7138         estimate D2E/DX2                !
 ! D31   D(1,2,3,7)              9.0563         estimate D2E/DX2                !
 ! D32   D(10,2,3,4)           -53.2445         estimate D2E/DX2                !
 ! D33   D(10,2,3,5)          -168.8569         estimate D2E/DX2                !
 ! D34   D(10,2,3,6)            69.5324         estimate D2E/DX2                !
 ! D35   D(10,2,3,7)          -107.6975         estimate D2E/DX2                !
 ! D36   D(11,2,3,4)          -173.9697         estimate D2E/DX2                !
 ! D37   D(11,2,3,5)            70.4179         estimate D2E/DX2                !
 ! D38   D(11,2,3,6)           -51.1928         estimate D2E/DX2                !
 ! D39   D(11,2,3,7)           131.5773         estimate D2E/DX2                !
 ! D40   D(2,3,6,8)           -131.9989         estimate D2E/DX2                !
 ! D41   D(4,3,6,8)            -13.764          estimate D2E/DX2                !
 ! D42   D(5,3,6,8)            112.1169         estimate D2E/DX2                !
 ! D43   D(7,3,6,8)             38.6199         estimate D2E/DX2                !
 ! D44   D(2,3,7,1)             -5.9143         estimate D2E/DX2                !
 ! D45   D(2,3,7,13)          -154.9143         estimate D2E/DX2                !
 ! D46   D(2,3,7,15)          -101.1292         estimate D2E/DX2                !
 ! D47   D(2,3,7,17)           -79.4422         estimate D2E/DX2                !
 ! D48   D(6,3,7,1)           -176.9241         estimate D2E/DX2                !
 ! D49   D(6,3,7,13)            34.0759         estimate D2E/DX2                !
 ! D50   D(6,3,7,15)            87.8611         estimate D2E/DX2                !
 ! D51   D(6,3,7,17)           109.5481         estimate D2E/DX2                !
 ! D52   D(1,7,13,14)           69.1141         estimate D2E/DX2                !
 ! D53   D(1,7,13,20)         -155.2043         estimate D2E/DX2                !
 ! D54   D(1,7,13,23)          -43.1747         estimate D2E/DX2                !
 ! D55   D(3,7,13,14)          111.1209         estimate D2E/DX2                !
 ! D56   D(3,7,13,20)         -113.1975         estimate D2E/DX2                !
 ! D57   D(3,7,13,23)           -1.1679         estimate D2E/DX2                !
 ! D58   D(4,7,13,14)          143.8236         estimate D2E/DX2                !
 ! D59   D(4,7,13,20)          -80.4948         estimate D2E/DX2                !
 ! D60   D(4,7,13,23)           31.5348         estimate D2E/DX2                !
 ! D61   D(5,7,13,14)           86.4074         estimate D2E/DX2                !
 ! D62   D(5,7,13,20)         -137.911          estimate D2E/DX2                !
 ! D63   D(5,7,13,23)          -25.8814         estimate D2E/DX2                !
 ! D64   D(15,7,13,14)          14.5593         estimate D2E/DX2                !
 ! D65   D(15,7,13,20)         150.2409         estimate D2E/DX2                !
 ! D66   D(15,7,13,23)         -97.7295         estimate D2E/DX2                !
 ! D67   D(17,7,13,14)           0.1614         estimate D2E/DX2                !
 ! D68   D(17,7,13,20)         135.843          estimate D2E/DX2                !
 ! D69   D(17,7,13,23)        -112.1273         estimate D2E/DX2                !
 ! D70   D(1,7,15,14)         -158.7811         estimate D2E/DX2                !
 ! D71   D(1,7,15,16)          101.9101         estimate D2E/DX2                !
 ! D72   D(1,7,15,18)          -49.3138         estimate D2E/DX2                !
 ! D73   D(3,7,15,14)         -100.8812         estimate D2E/DX2                !
 ! D74   D(3,7,15,16)          159.8101         estimate D2E/DX2                !
 ! D75   D(3,7,15,18)            8.5861         estimate D2E/DX2                !
 ! D76   D(4,7,15,14)          -80.7058         estimate D2E/DX2                !
 ! D77   D(4,7,15,16)          179.9855         estimate D2E/DX2                !
 ! D78   D(4,7,15,18)           28.7615         estimate D2E/DX2                !
 ! D79   D(5,7,15,14)          -97.2774         estimate D2E/DX2                !
 ! D80   D(5,7,15,16)          163.4139         estimate D2E/DX2                !
 ! D81   D(5,7,15,18)           12.1899         estimate D2E/DX2                !
 ! D82   D(13,7,15,14)         -11.0122         estimate D2E/DX2                !
 ! D83   D(13,7,15,16)        -110.3209         estimate D2E/DX2                !
 ! D84   D(13,7,15,18)          98.4551         estimate D2E/DX2                !
 ! D85   D(7,13,14,15)         -22.3967         estimate D2E/DX2                !
 ! D86   D(7,13,14,21)          93.7274         estimate D2E/DX2                !
 ! D87   D(7,13,14,22)        -145.5647         estimate D2E/DX2                !
 ! D88   D(20,13,14,15)       -165.0795         estimate D2E/DX2                !
 ! D89   D(20,13,14,21)        -48.9554         estimate D2E/DX2                !
 ! D90   D(20,13,14,22)         71.7525         estimate D2E/DX2                !
 ! D91   D(23,13,14,15)         80.2395         estimate D2E/DX2                !
 ! D92   D(23,13,14,21)       -163.6364         estimate D2E/DX2                !
 ! D93   D(23,13,14,22)        -42.9285         estimate D2E/DX2                !
 ! D94   D(13,14,15,7)          16.4961         estimate D2E/DX2                !
 ! D95   D(13,14,15,16)        169.0178         estimate D2E/DX2                !
 ! D96   D(13,14,15,17)         45.3603         estimate D2E/DX2                !
 ! D97   D(13,14,15,18)        -79.932          estimate D2E/DX2                !
 ! D98   D(21,14,15,7)        -101.0827         estimate D2E/DX2                !
 ! D99   D(21,14,15,16)         51.439          estimate D2E/DX2                !
 ! D100  D(21,14,15,17)        -72.2184         estimate D2E/DX2                !
 ! D101  D(21,14,15,18)        162.4892         estimate D2E/DX2                !
 ! D102  D(22,14,15,7)         141.5622         estimate D2E/DX2                !
 ! D103  D(22,14,15,16)        -65.9162         estimate D2E/DX2                !
 ! D104  D(22,14,15,17)        170.4264         estimate D2E/DX2                !
 ! D105  D(22,14,15,18)         45.134          estimate D2E/DX2                !
 ! D106  D(7,15,16,24)        -112.6493         estimate D2E/DX2                !
 ! D107  D(14,15,16,24)        153.4553         estimate D2E/DX2                !
 ! D108  D(17,15,16,24)        -88.5929         estimate D2E/DX2                !
 ! D109  D(18,15,16,24)         37.9629         estimate D2E/DX2                !
 ! D110  D(7,15,18,19)          -7.1674         estimate D2E/DX2                !
 ! D111  D(14,15,18,19)         76.0452         estimate D2E/DX2                !
 ! D112  D(16,15,18,19)       -174.0597         estimate D2E/DX2                !
 ! D113  D(17,15,18,19)        -45.932          estimate D2E/DX2                !
 --------------------------------------------------------------------------------
 Trust Radius=3.00D-01 FncErr=1.00D-07 GrdErr=1.00D-06 EigMax=2.50D+02 EigMin=1.00D-04
 Number of steps in this run=    144 maximum allowed number of steps=    144.
 GradGradGradGradGradGradGradGradGradGradGradGradGradGradGradGradGradGrad

                          Input orientation:                          
 ---------------------------------------------------------------------
 Center     Atomic      Atomic             Coordinates (Angstroms)
 Number     Number       Type             X           Y           Z
 ---------------------------------------------------------------------
      1          7           0       -1.823867   -1.675446    1.217912
      2          6           0       -2.845805   -0.579767    1.127658
      3         15           0       -2.251614    0.477653   -0.242037
      4          8           0       -2.283443   -0.372392   -1.519522
      5          8           0       -0.780319    0.801523    0.098401
      6          8           0       -3.214336    1.761074   -0.278977
      7         20           0       -0.272856   -1.459182   -0.911559
      8          1           0       -3.550123    1.983975   -1.164689
      9          1           0       -2.276677   -2.531579    1.536466
     10          1           0       -3.813217   -1.006550    0.852562
     11          1           0       -2.959510   -0.029928    2.067071
     12          1           0       -1.147785   -1.437034    1.944894
     13          7           0        1.333053    0.256997   -2.031467
     14          6           0        2.584081    0.472915   -1.254361
     15         15           0        2.287482    0.001010    0.488230
     16          8           0        3.755254    0.001920    1.106970
     17          8           0        1.550722   -1.325127    0.499518
     18          8           0        1.529156    1.164711    1.260150
     19          1           0        0.553885    1.194474    1.016360
     20          1           0        1.558929    0.277764   -3.026238
     21          1           0        3.360808   -0.197385   -1.634895
     22          1           0        2.960195    1.500196   -1.310175
     23          1           0        0.704204    1.049136   -1.873317
     24          1           0        3.820644    0.171759    2.063746
 ---------------------------------------------------------------------
                    Distance matrix (angstroms):
                    1          2          3          4          5
     1  N    0.000000
     2  C    1.501005   0.000000
     3  P    2.636334   1.829553   0.000000
     4  O    3.066384   2.714188   1.534783   0.000000
     5  O    2.911645   2.689529   1.544507   2.501027   0.000000
     6  O    3.997969   2.755717   1.604796   2.637649   2.643406
     7  Ca   2.643304   3.398801   2.848697   2.364993   2.527514
     8  H    4.695542   3.510511   2.192354   2.698676   3.265793
     9  H    1.019547   2.073789   3.495594   3.741818   3.926410
    10  H    2.130355   1.092569   2.416528   2.892948   3.610590
    11  H    2.172207   1.094417   2.467941   3.665788   3.052187
    12  H    1.020995   2.070279   3.109202   3.798074   2.925014
    13  N    4.925338   5.305007   4.012554   3.706381   3.049457
    14  C    5.491594   6.022111   4.940523   4.947489   3.641034
    15  P    4.499571   5.205460   4.622107   5.006381   3.194400
    16  O    5.826874   6.626671   6.174836   6.595789   4.714657
    17  O    3.467949   4.503285   4.272901   4.436784   3.180768
    18  O    4.394433   4.711799   4.125874   4.962376   2.610601
    19  H    3.732395   3.836432   3.157249   4.115361   1.666481
    20  H    5.768116   6.114891   4.723555   4.178124   3.938245
    21  H    6.099511   6.804408   5.821942   5.648142   4.599029
    22  H    6.274008   6.631660   5.417515   5.571907   4.057545
    23  H    4.834273   4.925621   3.424110   3.327454   2.480483
    24  H    5.999009   6.773670   6.502502   7.098999   5.042622
                    6          7          8          9         10
     6  O    0.000000
     7  Ca   4.407099   0.000000
     8  H    0.973100   4.760240   0.000000
     9  H    4.754147   3.340384   5.413699   0.000000
    10  H    3.049391   3.981351   3.616872   2.270329   0.000000
    11  H    2.962527   4.258300   3.853427   2.646896   1.776974
    12  H    4.409550   2.987527   5.209994   1.624574   2.912564
    13  N    5.100218   2.603538   5.251587   5.791067   6.033098
    14  C    6.019333   3.465920   6.318212   6.359455   6.895894
    15  P    5.827215   3.262959   6.382940   5.323942   6.194065
    16  O    7.320564   4.736554   7.903006   6.556468   7.639599
    17  O    5.730312   2.309664   6.303837   4.144849   5.384977
    18  O    5.022478   3.853360   5.687716   5.312559   5.781129
    19  H    4.024727   3.382641   4.714145   4.708085   4.893150
    20  H    5.703658   3.293066   5.699029   6.589579   6.749408
    21  H    6.993325   3.913932   7.262258   6.876572   7.636022
    22  H    6.265482   4.401071   6.529889   7.196069   7.539252
    23  H    4.289957   2.858546   4.413091   5.773543   5.662452
    24  H    7.583220   5.316874   8.248340   6.690545   7.818645
                   11         12         13         14         15
    11  H    0.000000
    12  H    2.297221   0.000000
    13  N    5.941922   4.983548   0.000000
    14  C    6.481987   5.273515   1.488484   0.000000
    15  P    5.479473   3.998863   2.706535   1.829559   0.000000
    16  O    6.783131   5.178078   3.972644   2.677567   1.592857
    17  O    4.947419   3.063262   2.992721   2.716041   1.517097
    18  O    4.714489   3.795256   3.420108   2.813220   1.589062
    19  H    3.866148   3.268438   3.282562   3.130258   2.169939
    20  H    6.815627   5.914304   1.020304   2.056349   3.599842
    21  H    7.326597   5.888891   2.115543   1.094264   2.387268
    22  H    6.984982   6.008186   2.171036   1.095391   2.436054
    23  H    5.487608   4.918297   1.023693   2.061328   3.030221
    24  H    6.783154   5.223756   4.792300   3.553817   2.204993
                   16         17         18         19         20
    16  O    0.000000
    17  O    2.643863   0.000000
    18  O    2.516159   2.603520   0.000000
    19  H    3.417478   2.758478   1.005720   0.000000
    20  H    4.688639   3.873020   4.377291   4.265334   0.000000
    21  H    2.777253   3.017273   3.686670   4.104296   2.325590
    22  H    2.952886   3.639238   2.960910   3.361036   2.530367
    23  H    4.391774   3.461801   3.242301   2.897232   1.629355
    24  H    0.973932   3.136881   2.623478   3.579759   5.570864
                   21         22         23         24
    21  H    0.000000
    22  H    1.774180   0.000000
    23  H    2.944182   2.368561   0.000000
    24  H    3.745353   3.726722   5.097299   0.000000
 Stoichiometry    C2H11CaN2O6P2(1+)
 Framework group  C1[X(C2H11CaN2O6P2)]
 Deg. of freedom    66
 Full point group                 C1      NOp   1
 Largest Abelian subgroup         C1      NOp   1
 Largest concise Abelian subgroup C1      NOp   1
                         Standard orientation:                         
 ---------------------------------------------------------------------
 Center     Atomic      Atomic             Coordinates (Angstroms)
 Number     Number       Type             X           Y           Z
 ---------------------------------------------------------------------
      1          7           0       -1.691162   -1.930351   -0.839340
      2          6           0       -2.723701   -1.443190    0.135111
      3         15           0       -2.214543    0.273876    0.508885
      4          8           0       -2.312738    1.072093   -0.798313
      5          8           0       -0.728553    0.180861    0.919593
      6          8           0       -3.186184    0.794831    1.675028
      7         20           0       -0.264033    0.172976   -1.564856
      8          1           0       -3.572787    1.672704    1.511318
      9          1           0       -2.119701   -2.603077   -1.474376
     10          1           0       -3.702264   -1.425469   -0.350487
     11          1           0       -2.787890   -2.069177    1.030526
     12          1           0       -0.976769   -2.452249   -0.329738
     13          7           0        1.264981    1.995120   -0.506407
     14          6           0        2.556365    1.449335   -0.006376
     15         15           0        2.361504   -0.343413    0.302441
     16          8           0        3.861766   -0.824430    0.537025
     17          8           0        1.635232   -0.950628   -0.883056
     18          8           0        1.640283   -0.594434    1.695978
     19          1           0        0.652652   -0.413633    1.637930
     20          1           0        1.434314    2.917088   -0.909300
     21          1           0        3.314784    1.554175   -0.788185
     22          1           0        2.922016    1.951862    0.895648
     23          1           0        0.640878    2.150887    0.289947
     24          1           0        3.979845   -1.616191    1.091745
 ---------------------------------------------------------------------
 Rotational constants (GHZ):           0.9442972           0.3408540           0.3398687
 Standard basis: def2TZVP (5D, 7F)
 There are   549 symmetry adapted cartesian basis functions of A   symmetry.
 There are   486 symmetry adapted basis functions of A   symmetry.
   486 basis functions,   813 primitive gaussians,   549 cartesian basis functions
    67 alpha electrons       67 beta electrons
       nuclear repulsion energy      1461.2546271172 Hartrees.
 NAtoms=   24 NActive=   24 NUniq=   24 SFac= 1.00D+00 NAtFMM=   60 NAOKFM=F Big=F
 Integral buffers will be    131072 words long.
 Raffenetti 2 integral format.
 Two-electron integral symmetry is turned on.
 Nuclear repulsion after empirical dispersion term =     1461.2507687411 Hartrees.
 One-electron integrals computed using PRISM.
   1 Symmetry operations used in ECPInt.
 ECPInt:  NShTT=   18915 NPrTT=   62860 LenC2=   17203 LenP2D=   40693.
 LDataN:  DoStor=T MaxTD1= 6 Len=  172
 NBasis=   486 RedAO= T EigKep=  4.53D-04  NBF=   486
 NBsUse=   486 1.00D-06 EigRej= -1.00D+00 NBFU=   486
 ExpMin= 2.68D-02 ExpMax= 1.73D+05 ExpMxC= 5.89D+03 IAcc=3 IRadAn=         5 AccDes= 0.00D+00
 Harris functional with IExCor= 1009 and IRadAn=       5 diagonalized for initial guess.
 HarFok:  IExCor= 1009 AccDes= 0.00D+00 IRadAn=         5 IDoV= 1 UseB2=F ITyADJ=14
 ICtDFT=  3500011 ScaDFX=  1.000000  1.000000  1.000000  1.000000
 FoFCou: FMM=F IPFlag=           0 FMFlag=      100000 FMFlg1=           0
         NFxFlg=           0 DoJE=T BraDBF=F KetDBF=T FulRan=T
         wScrn=  0.000000 ICntrl=       500 IOpCl=  0 I1Cent=   200000004 NGrid=           0
         NMat0=    1 NMatS0=      1 NMatT0=    0 NMatD0=    1 NMtDS0=    0 NMtDT0=    0
 Petite list used in FoFCou.
 Initial guess <Sx>= 0.0000 <Sy>= 0.0000 <Sz>= 0.0000 <S**2>=-0.0000 S=-0.0000
 Requested convergence on RMS density matrix=1.00D-08 within  32 cycles.
 Requested convergence on MAX density matrix=1.00D-06.
 Requested convergence on             energy=1.00D-06.
 No special actions if energy rises.
 SCF Done:  E(UM06) =  -2004.11122572     A.U. after   13 cycles
            NFock= 13  Conv=0.40D-08     -V/T= 2.0029
 <Sx>= 0.0000 <Sy>= 0.0000 <Sz>= 0.0000 <S**2>=-0.0000 S=-0.0000
 <L.S>= 0.000000000000E+00
 Annihilation of the first spin contaminant:
 S**2 before annihilation    -0.0000,   after    -0.0000
 QCSCF skips out because SCF is already converged.

 **********************************************************************

            Population analysis using the SCF Density.

 **********************************************************************

 Orbital symmetries:
 Alpha Orbitals:
       Occupied  (A) (A) (A) (A) (A) (A) (A) (A) (A) (A) (A) (A)
                 (A) (A) (A) (A) (A) (A) (A) (A) (A) (A) (A) (A)
                 (A) (A) (A) (A) (A) (A) (A) (A) (A) (A) (A) (A)
                 (A) (A) (A) (A) (A) (A) (A) (A) (A) (A) (A) (A)
                 (A) (A) (A) (A) (A) (A) (A) (A) (A) (A) (A) (A)
                 (A) (A) (A) (A) (A) (A) (A)
       Virtual   (A) (A) (A) (A) (A) (A) (A) (A) (A) (A) (A) (A)
                 (A) (A) (A) (A) (A) (A) (A) (A) (A) (A) (A) (A)
                 (A) (A) (A) (A) (A) (A) (A) (A) (A) (A) (A) (A)
                 (A) (A) (A) (A) (A) (A) (A) (A) (A) (A) (A) (A)
                 (A) (A) (A) (A) (A) (A) (A) (A) (A) (A) (A) (A)
                 (A) (A) (A) (A) (A) (A) (A) (A) (A) (A) (A) (A)
                 (A) (A) (A) (A) (A) (A) (A) (A) (A) (A) (A) (A)
                 (A) (A) (A) (A) (A) (A) (A) (A) (A) (A) (A) (A)
                 (A) (A) (A) (A) (A) (A) (A) (A) (A) (A) (A) (A)
                 (A) (A) (A) (A) (A) (A) (A) (A) (A) (A) (A) (A)
                 (A) (A) (A) (A) (A) (A) (A) (A) (A) (A) (A) (A)
                 (A) (A) (A) (A) (A) (A) (A) (A) (A) (A) (A) (A)
                 (A) (A) (A) (A) (A) (A) (A) (A) (A) (A) (A) (A)
                 (A) (A) (A) (A) (A) (A) (A) (A) (A) (A) (A) (A)
                 (A) (A) (A) (A) (A) (A) (A) (A) (A) (A) (A) (A)
                 (A) (A) (A) (A) (A) (A) (A) (A) (A) (A) (A) (A)
                 (A) (A) (A) (A) (A) (A) (A) (A) (A) (A) (A) (A)
                 (A) (A) (A) (A) (A) (A) (A) (A) (A) (A) (A) (A)
                 (A) (A) (A) (A) (A) (A) (A) (A) (A) (A) (A) (A)
                 (A) (A) (A) (A) (A) (A) (A) (A) (A) (A) (A) (A)
                 (A) (A) (A) (A) (A) (A) (A) (A) (A) (A) (A) (A)
                 (A) (A) (A) (A) (A) (A) (A) (A) (A) (A) (A) (A)
                 (A) (A) (A) (A) (A) (A) (A) (A) (A) (A) (A) (A)
                 (A) (A) (A) (A) (A) (A) (A) (A) (A) (A) (A) (A)
                 (A) (A) (A) (A) (A) (A) (A) (A) (A) (A) (A) (A)
                 (A) (A) (A) (A) (A) (A) (A) (A) (A) (A) (A) (A)
                 (A) (A) (A) (A) (A) (A) (A) (A) (A) (A) (A) (A)
                 (A) (A) (A) (A) (A) (A) (A) (A) (A) (A) (A) (A)
                 (A) (A) (A) (A) (A) (A) (A) (A) (A) (A) (A) (A)
                 (A) (A) (A) (A) (A) (A) (A) (A) (A) (A) (A) (A)
                 (A) (A) (A) (A) (A) (A) (A) (A) (A) (A) (A) (A)
                 (A) (A) (A) (A) (A) (A) (A) (A) (A) (A) (A) (A)
                 (A) (A) (A) (A) (A) (A) (A) (A) (A) (A) (A) (A)
                 (A) (A) (A) (A) (A) (A) (A) (A) (A) (A) (A) (A)
                 (A) (A) (A) (A) (A) (A) (A) (A) (A) (A) (A)
 Beta  Orbitals:
       Occupied  (A) (A) (A) (A) (A) (A) (A) (A) (A) (A) (A) (A)
                 (A) (A) (A) (A) (A) (A) (A) (A) (A) (A) (A) (A)
                 (A) (A) (A) (A) (A) (A) (A) (A) (A) (A) (A) (A)
                 (A) (A) (A) (A) (A) (A) (A) (A) (A) (A) (A) (A)
                 (A) (A) (A) (A) (A) (A) (A) (A) (A) (A) (A) (A)
                 (A) (A) (A) (A) (A) (A) (A)
       Virtual   (A) (A) (A) (A) (A) (A) (A) (A) (A) (A) (A) (A)
                 (A) (A) (A) (A) (A) (A) (A) (A) (A) (A) (A) (A)
                 (A) (A) (A) (A) (A) (A) (A) (A) (A) (A) (A) (A)
                 (A) (A) (A) (A) (A) (A) (A) (A) (A) (A) (A) (A)
                 (A) (A) (A) (A) (A) (A) (A) (A) (A) (A) (A) (A)
                 (A) (A) (A) (A) (A) (A) (A) (A) (A) (A) (A) (A)
                 (A) (A) (A) (A) (A) (A) (A) (A) (A) (A) (A) (A)
                 (A) (A) (A) (A) (A) (A) (A) (A) (A) (A) (A) (A)
                 (A) (A) (A) (A) (A) (A) (A) (A) (A) (A) (A) (A)
                 (A) (A) (A) (A) (A) (A) (A) (A) (A) (A) (A) (A)
                 (A) (A) (A) (A) (A) (A) (A) (A) (A) (A) (A) (A)
                 (A) (A) (A) (A) (A) (A) (A) (A) (A) (A) (A) (A)
                 (A) (A) (A) (A) (A) (A) (A) (A) (A) (A) (A) (A)
                 (A) (A) (A) (A) (A) (A) (A) (A) (A) (A) (A) (A)
                 (A) (A) (A) (A) (A) (A) (A) (A) (A) (A) (A) (A)
                 (A) (A) (A) (A) (A) (A) (A) (A) (A) (A) (A) (A)
                 (A) (A) (A) (A) (A) (A) (A) (A) (A) (A) (A) (A)
                 (A) (A) (A) (A) (A) (A) (A) (A) (A) (A) (A) (A)
                 (A) (A) (A) (A) (A) (A) (A) (A) (A) (A) (A) (A)
                 (A) (A) (A) (A) (A) (A) (A) (A) (A) (A) (A) (A)
                 (A) (A) (A) (A) (A) (A) (A) (A) (A) (A) (A) (A)
                 (A) (A) (A) (A) (A) (A) (A) (A) (A) (A) (A) (A)
                 (A) (A) (A) (A) (A) (A) (A) (A) (A) (A) (A) (A)
                 (A) (A) (A) (A) (A) (A) (A) (A) (A) (A) (A) (A)
                 (A) (A) (A) (A) (A) (A) (A) (A) (A) (A) (A) (A)
                 (A) (A) (A) (A) (A) (A) (A) (A) (A) (A) (A) (A)
                 (A) (A) (A) (A) (A) (A) (A) (A) (A) (A) (A) (A)
                 (A) (A) (A) (A) (A) (A) (A) (A) (A) (A) (A) (A)
                 (A) (A) (A) (A) (A) (A) (A) (A) (A) (A) (A) (A)
                 (A) (A) (A) (A) (A) (A) (A) (A) (A) (A) (A) (A)
                 (A) (A) (A) (A) (A) (A) (A) (A) (A) (A) (A) (A)
                 (A) (A) (A) (A) (A) (A) (A) (A) (A) (A) (A) (A)
                 (A) (A) (A) (A) (A) (A) (A) (A) (A) (A) (A) (A)
                 (A) (A) (A) (A) (A) (A) (A) (A) (A) (A) (A) (A)
                 (A) (A) (A) (A) (A) (A) (A) (A) (A) (A) (A)
 The electronic state is 1-A.
 Alpha  occ. eigenvalues -- -145.70403 -77.48797 -77.45133 -19.38335 -19.36329
 Alpha  occ. eigenvalues --  -19.36284 -19.32974 -19.30738 -19.29922 -15.70010
 Alpha  occ. eigenvalues --  -14.55522 -14.54407 -12.76929 -12.76882 -12.76813
 Alpha  occ. eigenvalues --  -10.42491 -10.40346  -6.89224  -6.85619  -5.01327
 Alpha  occ. eigenvalues --   -5.01137  -5.01022  -4.97702  -4.97502  -4.97457
 Alpha  occ. eigenvalues --   -1.94790  -1.24040  -1.22135  -1.21305  -1.20875
 Alpha  occ. eigenvalues --   -1.20185  -1.18690  -1.13862  -1.13432  -1.09041
 Alpha  occ. eigenvalues --   -1.06737  -1.05143  -0.86214  -0.83679  -0.76758
 Alpha  occ. eigenvalues --   -0.73407  -0.70564  -0.68199  -0.66345  -0.64515
 Alpha  occ. eigenvalues --   -0.63770  -0.61615  -0.60371  -0.60139  -0.58847
 Alpha  occ. eigenvalues --   -0.57606  -0.57134  -0.55538  -0.54231  -0.53527
 Alpha  occ. eigenvalues --   -0.52685  -0.52165  -0.49938  -0.49077  -0.48477
 Alpha  occ. eigenvalues --   -0.47937  -0.47020  -0.45946  -0.45326  -0.44793
 Alpha  occ. eigenvalues --   -0.42905  -0.42785
 Alpha virt. eigenvalues --   -0.18978  -0.14640  -0.12892  -0.12625  -0.11089
 Alpha virt. eigenvalues --   -0.10056  -0.09857  -0.09341  -0.07951  -0.06708
 Alpha virt. eigenvalues --   -0.06248  -0.05568  -0.05202  -0.04390  -0.03686
 Alpha virt. eigenvalues --   -0.03308  -0.02843  -0.02371  -0.01714  -0.01101
 Alpha virt. eigenvalues --   -0.00546   0.00310   0.00421   0.00879   0.01571
 Alpha virt. eigenvalues --    0.02201   0.02618   0.03319   0.03910   0.04823
 Alpha virt. eigenvalues --    0.05205   0.06514   0.06917   0.07584   0.08432
 Alpha virt. eigenvalues --    0.08672   0.10421   0.11249   0.12281   0.13257
 Alpha virt. eigenvalues --    0.13985   0.15031   0.15495   0.16114   0.16706
 Alpha virt. eigenvalues --    0.17681   0.18064   0.18588   0.20063   0.21227
 Alpha virt. eigenvalues --    0.21811   0.23110   0.23785   0.24684   0.25737
 Alpha virt. eigenvalues --    0.26232   0.26462   0.27019   0.27678   0.28348
 Alpha virt. eigenvalues --    0.30334   0.30440   0.31542   0.31959   0.32574
 Alpha virt. eigenvalues --    0.33144   0.34233   0.35222   0.35892   0.36526
 Alpha virt. eigenvalues --    0.37674   0.38327   0.38588   0.39974   0.40511
 Alpha virt. eigenvalues --    0.40783   0.41688   0.41896   0.42590   0.43506
 Alpha virt. eigenvalues --    0.44689   0.45568   0.47017   0.47352   0.48609
 Alpha virt. eigenvalues --    0.51297   0.52938   0.53248   0.53580   0.56053
 Alpha virt. eigenvalues --    0.56648   0.57962   0.58517   0.59056   0.60380
 Alpha virt. eigenvalues --    0.60801   0.61447   0.62289   0.64272   0.65956
 Alpha virt. eigenvalues --    0.67675   0.68796   0.68995   0.70163   0.71115
 Alpha virt. eigenvalues --    0.71920   0.73097   0.74125   0.75436   0.76580
 Alpha virt. eigenvalues --    0.77285   0.79515   0.81201   0.83324   0.85616
 Alpha virt. eigenvalues --    0.88459   0.89438   0.91953   0.93079   0.95004
 Alpha virt. eigenvalues --    0.98273   1.01456   1.03510   1.04421   1.05256
 Alpha virt. eigenvalues --    1.06210   1.07455   1.07698   1.08857   1.09625
 Alpha virt. eigenvalues --    1.11286   1.11992   1.12482   1.15834   1.16700
 Alpha virt. eigenvalues --    1.17673   1.18710   1.20413   1.21414   1.22681
 Alpha virt. eigenvalues --    1.22994   1.24155   1.25217   1.25531   1.27675
 Alpha virt. eigenvalues --    1.29076   1.29328   1.30779   1.31513   1.32039
 Alpha virt. eigenvalues --    1.32826   1.33241   1.34287   1.35113   1.36183
 Alpha virt. eigenvalues --    1.38068   1.39103   1.39903   1.42386   1.44475
 Alpha virt. eigenvalues --    1.45757   1.46288   1.47883   1.48673   1.50181
 Alpha virt. eigenvalues --    1.51916   1.52820   1.55774   1.58079   1.60081
 Alpha virt. eigenvalues --    1.60968   1.63182   1.63743   1.64460   1.65420
 Alpha virt. eigenvalues --    1.67269   1.68723   1.69555   1.70574   1.71732
 Alpha virt. eigenvalues --    1.74295   1.75051   1.75664   1.76742   1.77233
 Alpha virt. eigenvalues --    1.78019   1.78593   1.80105   1.80467   1.81300
 Alpha virt. eigenvalues --    1.82257   1.82937   1.84110   1.84632   1.85713
 Alpha virt. eigenvalues --    1.87167   1.87525   1.89453   1.89948   1.92362
 Alpha virt. eigenvalues --    1.92991   1.93764   1.94196   1.96818   1.99047
 Alpha virt. eigenvalues --    1.99588   2.01788   2.02622   2.03539   2.04075
 Alpha virt. eigenvalues --    2.05591   2.06184   2.08246   2.09844   2.10603
 Alpha virt. eigenvalues --    2.12578   2.13400   2.15364   2.16183   2.17579
 Alpha virt. eigenvalues --    2.19081   2.19556   2.20939   2.21610   2.23123
 Alpha virt. eigenvalues --    2.23699   2.24221   2.26240   2.28968   2.29931
 Alpha virt. eigenvalues --    2.31528   2.33508   2.35038   2.38728   2.39492
 Alpha virt. eigenvalues --    2.40907   2.43341   2.44940   2.45109   2.47025
 Alpha virt. eigenvalues --    2.47923   2.51802   2.52791   2.53836   2.54795
 Alpha virt. eigenvalues --    2.55531   2.60419   2.60874   2.63788   2.66843
 Alpha virt. eigenvalues --    2.72998   2.74564   2.75707   2.77291   2.80239
 Alpha virt. eigenvalues --    2.81715   2.82781   2.83879   2.85545   2.87435
 Alpha virt. eigenvalues --    2.88677   2.89520   2.90812   2.92001   2.92862
 Alpha virt. eigenvalues --    2.94564   2.97798   3.00557   3.00668   3.02358
 Alpha virt. eigenvalues --    3.03959   3.04653   3.06986   3.09608   3.12359
 Alpha virt. eigenvalues --    3.13322   3.15121   3.17656   3.18171   3.18725
 Alpha virt. eigenvalues --    3.20998   3.23472   3.30860   3.32782   3.35036
 Alpha virt. eigenvalues --    3.36428   3.39491   3.40489   3.41915   3.50845
 Alpha virt. eigenvalues --    3.55104   3.58681   3.63384   3.65775   3.66521
 Alpha virt. eigenvalues --    3.67931   3.69189   3.79006   3.80442   3.82468
 Alpha virt. eigenvalues --    3.83862   3.84429   3.86084   3.92003   3.94662
 Alpha virt. eigenvalues --    4.12283   4.12582   4.16163   4.18225   4.46077
 Alpha virt. eigenvalues --    4.46739   4.54659   4.55944   4.63964   4.65353
 Alpha virt. eigenvalues --    4.71122   4.74953   4.82839   4.84355   4.85769
 Alpha virt. eigenvalues --    4.87253   4.92646   4.93874   4.97434   4.98294
 Alpha virt. eigenvalues --    4.99632   5.00034   5.02136   5.02606   5.02980
 Alpha virt. eigenvalues --    5.03563   5.03780   5.04828   5.05346   5.05791
 Alpha virt. eigenvalues --    5.06572   5.07205   5.07393   5.09554   5.10142
 Alpha virt. eigenvalues --    5.10802   5.11449   5.12162   5.13259   5.14595
 Alpha virt. eigenvalues --    5.16224   5.17519   5.19759   5.22231   5.22514
 Alpha virt. eigenvalues --    5.22630   5.23732   5.24838   5.27212   5.29517
 Alpha virt. eigenvalues --    5.31354   5.32394   5.34988   5.37258   5.37585
 Alpha virt. eigenvalues --    5.38769   5.42077   5.43113   5.45267   5.47641
 Alpha virt. eigenvalues --    5.49064   5.51281   5.52103   6.02672   6.04589
 Alpha virt. eigenvalues --    6.06401   6.26680   6.28497   6.29123   6.32207
 Alpha virt. eigenvalues --    6.33051   6.35705   6.38180   6.38529   6.44919
 Alpha virt. eigenvalues --    6.45771   6.49779   6.52347   6.55020   6.57148
 Alpha virt. eigenvalues --    6.59855   6.63975   6.65546   6.66762   6.68023
 Alpha virt. eigenvalues --    6.69372   6.70164   6.72810   6.74281   6.80294
 Alpha virt. eigenvalues --    6.82514   6.84057   6.88557   6.90814   6.98875
 Alpha virt. eigenvalues --    7.09527   7.69148   7.73016   7.88073   8.01256
 Alpha virt. eigenvalues --    8.05879   8.06756  16.59879  16.71991  22.10958
 Alpha virt. eigenvalues --   22.12468  31.80762  31.82116  43.45925  43.48999
 Alpha virt. eigenvalues --   43.49587  43.52335  43.60291  43.67455
  Beta  occ. eigenvalues -- -145.70403 -77.48797 -77.45133 -19.38335 -19.36329
  Beta  occ. eigenvalues --  -19.36284 -19.32974 -19.30738 -19.29922 -15.70010
  Beta  occ. eigenvalues --  -14.55522 -14.54407 -12.76929 -12.76882 -12.76813
  Beta  occ. eigenvalues --  -10.42491 -10.40346  -6.89224  -6.85619  -5.01327
  Beta  occ. eigenvalues --   -5.01137  -5.01022  -4.97702  -4.97502  -4.97457
  Beta  occ. eigenvalues --   -1.94790  -1.24040  -1.22135  -1.21305  -1.20875
  Beta  occ. eigenvalues --   -1.20185  -1.18690  -1.13862  -1.13432  -1.09041
  Beta  occ. eigenvalues --   -1.06737  -1.05143  -0.86214  -0.83679  -0.76758
  Beta  occ. eigenvalues --   -0.73407  -0.70564  -0.68199  -0.66345  -0.64515
  Beta  occ. eigenvalues --   -0.63770  -0.61615  -0.60371  -0.60139  -0.58847
  Beta  occ. eigenvalues --   -0.57606  -0.57134  -0.55538  -0.54231  -0.53527
  Beta  occ. eigenvalues --   -0.52685  -0.52165  -0.49938  -0.49077  -0.48477
  Beta  occ. eigenvalues --   -0.47937  -0.47020  -0.45946  -0.45326  -0.44793
  Beta  occ. eigenvalues --   -0.42905  -0.42785
  Beta virt. eigenvalues --   -0.18978  -0.14640  -0.12892  -0.12625  -0.11089
  Beta virt. eigenvalues --   -0.10056  -0.09857  -0.09341  -0.07951  -0.06708
  Beta virt. eigenvalues --   -0.06248  -0.05568  -0.05202  -0.04390  -0.03686
  Beta virt. eigenvalues --   -0.03308  -0.02843  -0.02371  -0.01714  -0.01101
  Beta virt. eigenvalues --   -0.00546   0.00310   0.00421   0.00879   0.01571
  Beta virt. eigenvalues --    0.02201   0.02618   0.03319   0.03910   0.04823
  Beta virt. eigenvalues --    0.05205   0.06514   0.06917   0.07584   0.08432
  Beta virt. eigenvalues --    0.08672   0.10421   0.11249   0.12281   0.13257
  Beta virt. eigenvalues --    0.13985   0.15031   0.15495   0.16114   0.16706
  Beta virt. eigenvalues --    0.17681   0.18064   0.18588   0.20063   0.21227
  Beta virt. eigenvalues --    0.21811   0.23110   0.23785   0.24684   0.25737
  Beta virt. eigenvalues --    0.26232   0.26462   0.27019   0.27678   0.28348
  Beta virt. eigenvalues --    0.30334   0.30440   0.31542   0.31959   0.32574
  Beta virt. eigenvalues --    0.33144   0.34233   0.35222   0.35892   0.36526
  Beta virt. eigenvalues --    0.37674   0.38327   0.38588   0.39974   0.40511
  Beta virt. eigenvalues --    0.40783   0.41688   0.41896   0.42590   0.43506
  Beta virt. eigenvalues --    0.44689   0.45568   0.47017   0.47352   0.48609
  Beta virt. eigenvalues --    0.51297   0.52938   0.53248   0.53580   0.56053
  Beta virt. eigenvalues --    0.56648   0.57962   0.58517   0.59056   0.60380
  Beta virt. eigenvalues --    0.60801   0.61447   0.62289   0.64272   0.65956
  Beta virt. eigenvalues --    0.67675   0.68796   0.68995   0.70163   0.71115
  Beta virt. eigenvalues --    0.71920   0.73097   0.74125   0.75436   0.76580
  Beta virt. eigenvalues --    0.77285   0.79515   0.81201   0.83324   0.85616
  Beta virt. eigenvalues --    0.88459   0.89438   0.91953   0.93079   0.95004
  Beta virt. eigenvalues --    0.98273   1.01456   1.03510   1.04421   1.05256
  Beta virt. eigenvalues --    1.06210   1.07455   1.07698   1.08857   1.09625
  Beta virt. eigenvalues --    1.11286   1.11992   1.12482   1.15834   1.16700
  Beta virt. eigenvalues --    1.17673   1.18710   1.20413   1.21414   1.22681
  Beta virt. eigenvalues --    1.22994   1.24155   1.25217   1.25531   1.27675
  Beta virt. eigenvalues --    1.29076   1.29328   1.30779   1.31513   1.32039
  Beta virt. eigenvalues --    1.32826   1.33241   1.34287   1.35113   1.36183
  Beta virt. eigenvalues --    1.38068   1.39103   1.39903   1.42386   1.44475
  Beta virt. eigenvalues --    1.45757   1.46288   1.47883   1.48673   1.50181
  Beta virt. eigenvalues --    1.51916   1.52820   1.55774   1.58079   1.60081
  Beta virt. eigenvalues --    1.60968   1.63182   1.63743   1.64460   1.65420
  Beta virt. eigenvalues --    1.67269   1.68723   1.69555   1.70574   1.71732
  Beta virt. eigenvalues --    1.74295   1.75051   1.75664   1.76742   1.77233
  Beta virt. eigenvalues --    1.78019   1.78593   1.80105   1.80467   1.81300
  Beta virt. eigenvalues --    1.82257   1.82937   1.84110   1.84632   1.85713
  Beta virt. eigenvalues --    1.87167   1.87525   1.89453   1.89948   1.92362
  Beta virt. eigenvalues --    1.92991   1.93764   1.94196   1.96818   1.99047
  Beta virt. eigenvalues --    1.99588   2.01788   2.02622   2.03539   2.04075
  Beta virt. eigenvalues --    2.05591   2.06184   2.08246   2.09844   2.10603
  Beta virt. eigenvalues --    2.12578   2.13400   2.15364   2.16183   2.17579
  Beta virt. eigenvalues --    2.19081   2.19556   2.20939   2.21610   2.23123
  Beta virt. eigenvalues --    2.23699   2.24221   2.26240   2.28968   2.29931
  Beta virt. eigenvalues --    2.31528   2.33508   2.35038   2.38728   2.39492
  Beta virt. eigenvalues --    2.40907   2.43341   2.44940   2.45109   2.47025
  Beta virt. eigenvalues --    2.47923   2.51802   2.52791   2.53836   2.54795
  Beta virt. eigenvalues --    2.55531   2.60419   2.60874   2.63788   2.66843
  Beta virt. eigenvalues --    2.72998   2.74564   2.75707   2.77291   2.80239
  Beta virt. eigenvalues --    2.81715   2.82781   2.83879   2.85545   2.87435
  Beta virt. eigenvalues --    2.88677   2.89520   2.90812   2.92001   2.92862
  Beta virt. eigenvalues --    2.94564   2.97798   3.00557   3.00668   3.02358
  Beta virt. eigenvalues --    3.03959   3.04653   3.06986   3.09608   3.12359
  Beta virt. eigenvalues --    3.13322   3.15121   3.17656   3.18171   3.18725
  Beta virt. eigenvalues --    3.20998   3.23472   3.30860   3.32782   3.35036
  Beta virt. eigenvalues --    3.36428   3.39491   3.40489   3.41915   3.50845
  Beta virt. eigenvalues --    3.55104   3.58681   3.63384   3.65775   3.66521
  Beta virt. eigenvalues --    3.67931   3.69189   3.79006   3.80442   3.82468
  Beta virt. eigenvalues --    3.83862   3.84429   3.86084   3.92003   3.94662
  Beta virt. eigenvalues --    4.12283   4.12582   4.16163   4.18225   4.46077
  Beta virt. eigenvalues --    4.46739   4.54659   4.55944   4.63964   4.65353
  Beta virt. eigenvalues --    4.71122   4.74953   4.82839   4.84355   4.85769
  Beta virt. eigenvalues --    4.87253   4.92646   4.93874   4.97434   4.98294
  Beta virt. eigenvalues --    4.99632   5.00034   5.02136   5.02606   5.02980
  Beta virt. eigenvalues --    5.03563   5.03780   5.04828   5.05346   5.05791
  Beta virt. eigenvalues --    5.06572   5.07205   5.07393   5.09554   5.10142
  Beta virt. eigenvalues --    5.10802   5.11449   5.12162   5.13259   5.14595
  Beta virt. eigenvalues --    5.16224   5.17519   5.19759   5.22231   5.22514
  Beta virt. eigenvalues --    5.22630   5.23732   5.24838   5.27212   5.29517
  Beta virt. eigenvalues --    5.31354   5.32394   5.34988   5.37258   5.37585
  Beta virt. eigenvalues --    5.38769   5.42077   5.43113   5.45267   5.47641
  Beta virt. eigenvalues --    5.49064   5.51281   5.52103   6.02672   6.04589
  Beta virt. eigenvalues --    6.06401   6.26680   6.28497   6.29123   6.32207
  Beta virt. eigenvalues --    6.33051   6.35705   6.38180   6.38529   6.44919
  Beta virt. eigenvalues --    6.45771   6.49779   6.52347   6.55020   6.57148
  Beta virt. eigenvalues --    6.59855   6.63975   6.65546   6.66762   6.68023
  Beta virt. eigenvalues --    6.69372   6.70164   6.72810   6.74281   6.80294
  Beta virt. eigenvalues --    6.82514   6.84057   6.88557   6.90814   6.98875
  Beta virt. eigenvalues --    7.09527   7.69148   7.73016   7.88073   8.01256
  Beta virt. eigenvalues --    8.05879   8.06756  16.59879  16.71991  22.10958
  Beta virt. eigenvalues --   22.12468  31.80762  31.82116  43.45925  43.48999
  Beta virt. eigenvalues --   43.49587  43.52335  43.60291  43.67455
          Condensed to atoms (all electrons):
               1          2          3          4          5          6
     1  N    6.841514   0.153308  -0.059235  -0.010656  -0.007474   0.001717
     2  C    0.153308   4.947281   0.349167  -0.022182  -0.031909  -0.031489
     3  P   -0.059235   0.349167  12.769539   0.409920   0.419290   0.385476
     4  O   -0.010656  -0.022182   0.409920   8.213430  -0.056154  -0.024556
     5  O   -0.007474  -0.031909   0.419290  -0.056154   8.322801  -0.022824
     6  O    0.001717  -0.031489   0.385476  -0.024556  -0.022824   7.888584
     7  Ca   0.046179  -0.004743  -0.017117   0.117398   0.072955   0.002625
     8  H   -0.000188   0.003003  -0.005500   0.000875   0.000608   0.289248
     9  H    0.357161  -0.029987   0.008350  -0.001098   0.000472  -0.000097
    10  H   -0.024251   0.408904  -0.028345  -0.001338   0.002693   0.003483
    11  H   -0.028914   0.415274  -0.034961   0.002059   0.000148   0.001921
    12  H    0.345116  -0.023988   0.003055   0.000241  -0.000170   0.000001
    13  N   -0.000791  -0.000012   0.001152  -0.004059  -0.016222  -0.000015
    14  C    0.000079  -0.000066   0.000313   0.000098  -0.001053  -0.000003
    15  P   -0.000520   0.000366  -0.000432  -0.000074   0.007617   0.000011
    16  O    0.000002  -0.000000   0.000004   0.000000  -0.000040  -0.000000
    17  O   -0.007908  -0.000142   0.000797  -0.000341  -0.012464  -0.000003
    18  O   -0.000200  -0.000188   0.002067  -0.000070  -0.041728  -0.000024
    19  H    0.000501  -0.000189  -0.003628   0.000512   0.049280  -0.000078
    20  H   -0.000006  -0.000006  -0.000093  -0.000285   0.000765   0.000000
    21  H   -0.000001  -0.000001  -0.000005  -0.000010   0.000043   0.000000
    22  H    0.000003  -0.000001   0.000005   0.000002  -0.000289  -0.000001
    23  H    0.000060  -0.000010   0.000359  -0.000283   0.005385  -0.000127
    24  H   -0.000000   0.000001  -0.000004   0.000000   0.000019   0.000000
               7          8          9         10         11         12
     1  N    0.046179  -0.000188   0.357161  -0.024251  -0.028914   0.345116
     2  C   -0.004743   0.003003  -0.029987   0.408904   0.415274  -0.023988
     3  P   -0.017117  -0.005500   0.008350  -0.028345  -0.034961   0.003055
     4  O    0.117398   0.000875  -0.001098  -0.001338   0.002059   0.000241
     5  O    0.072955   0.000608   0.000472   0.002693   0.000148  -0.000170
     6  O    0.002625   0.289248  -0.000097   0.003483   0.001921   0.000001
     7  Ca  18.356450   0.000937  -0.005624  -0.000920   0.003139  -0.000241
     8  H    0.000937   0.336470   0.000014  -0.000139  -0.000361   0.000006
     9  H   -0.005624   0.000014   0.434897  -0.008990  -0.001978  -0.019376
    10  H   -0.000920  -0.000139  -0.008990   0.509370  -0.016510   0.003261
    11  H    0.003139  -0.000361  -0.001978  -0.016510   0.512879  -0.009513
    12  H   -0.000241   0.000006  -0.019376   0.003261  -0.009513   0.426998
    13  N    0.032351  -0.000004  -0.000007   0.000006   0.000003   0.000040
    14  C   -0.007564  -0.000000  -0.000003   0.000000  -0.000002  -0.000012
    15  P    0.002255  -0.000001   0.000008  -0.000003   0.000012  -0.000199
    16  O    0.000733   0.000000  -0.000000   0.000000   0.000000  -0.000009
    17  O    0.089517   0.000001  -0.000165  -0.000012  -0.000029  -0.000036
    18  O   -0.003107   0.000003  -0.000010   0.000001  -0.000013   0.000583
    19  H   -0.003334  -0.000026  -0.000027   0.000039   0.000067   0.000025
    20  H   -0.002644  -0.000003  -0.000000  -0.000000   0.000000  -0.000000
    21  H   -0.002760  -0.000000   0.000000   0.000000   0.000000  -0.000002
    22  H    0.003262  -0.000000   0.000000   0.000000   0.000000   0.000001
    23  H   -0.002180   0.000022  -0.000001  -0.000007   0.000001  -0.000011
    24  H    0.000430  -0.000000  -0.000000  -0.000000  -0.000000  -0.000003
              13         14         15         16         17         18
     1  N   -0.000791   0.000079  -0.000520   0.000002  -0.007908  -0.000200
     2  C   -0.000012  -0.000066   0.000366  -0.000000  -0.000142  -0.000188
     3  P    0.001152   0.000313  -0.000432   0.000004   0.000797   0.002067
     4  O   -0.004059   0.000098  -0.000074   0.000000  -0.000341  -0.000070
     5  O   -0.016222  -0.001053   0.007617  -0.000040  -0.012464  -0.041728
     6  O   -0.000015  -0.000003   0.000011  -0.000000  -0.000003  -0.000024
     7  Ca   0.032351  -0.007564   0.002255   0.000733   0.089517  -0.003107
     8  H   -0.000004  -0.000000  -0.000001   0.000000   0.000001   0.000003
     9  H   -0.000007  -0.000003   0.000008  -0.000000  -0.000165  -0.000010
    10  H    0.000006   0.000000  -0.000003   0.000000  -0.000012   0.000001
    11  H    0.000003  -0.000002   0.000012   0.000000  -0.000029  -0.000013
    12  H    0.000040  -0.000012  -0.000199  -0.000009  -0.000036   0.000583
    13  N    6.879613   0.162179  -0.052621   0.001673  -0.012321   0.000834
    14  C    0.162179   4.952617   0.337130  -0.029312  -0.022748  -0.014767
    15  P   -0.052621   0.337130  12.701387   0.405173   0.450345   0.355394
    16  O    0.001673  -0.029312   0.405173   7.851855  -0.020733  -0.024918
    17  O   -0.012321  -0.022748   0.450345  -0.020733   8.178744  -0.028731
    18  O    0.000834  -0.014767   0.355394  -0.024918  -0.028731   7.941814
    19  H    0.000002   0.001154  -0.012315   0.001502  -0.001068   0.280869
    20  H    0.353635  -0.030430   0.007846  -0.000075  -0.000279  -0.000269
    21  H   -0.028659   0.411449  -0.024777   0.001529  -0.001759   0.001679
    22  H   -0.028351   0.413433  -0.029144   0.002621   0.002081  -0.001753
    23  H    0.340435  -0.019732  -0.001153   0.000035   0.000396   0.001266
    24  H   -0.000164   0.002953  -0.006385   0.293718   0.000524   0.000714
              19         20         21         22         23         24
     1  N    0.000501  -0.000006  -0.000001   0.000003   0.000060  -0.000000
     2  C   -0.000189  -0.000006  -0.000001  -0.000001  -0.000010   0.000001
     3  P   -0.003628  -0.000093  -0.000005   0.000005   0.000359  -0.000004
     4  O    0.000512  -0.000285  -0.000010   0.000002  -0.000283   0.000000
     5  O    0.049280   0.000765   0.000043  -0.000289   0.005385   0.000019
     6  O   -0.000078   0.000000   0.000000  -0.000001  -0.000127   0.000000
     7  Ca  -0.003334  -0.002644  -0.002760   0.003262  -0.002180   0.000430
     8  H   -0.000026  -0.000003  -0.000000  -0.000000   0.000022  -0.000000
     9  H   -0.000027  -0.000000   0.000000   0.000000  -0.000001  -0.000000
    10  H    0.000039  -0.000000   0.000000   0.000000  -0.000007  -0.000000
    11  H    0.000067   0.000000   0.000000   0.000000   0.000001  -0.000000
    12  H    0.000025  -0.000000  -0.000002   0.000001  -0.000011  -0.000003
    13  N    0.000002   0.353635  -0.028659  -0.028351   0.340435  -0.000164
    14  C    0.001154  -0.030430   0.411449   0.413433  -0.019732   0.002953
    15  P   -0.012315   0.007846  -0.024777  -0.029144  -0.001153  -0.006385
    16  O    0.001502  -0.000075   0.001529   0.002621   0.000035   0.293718
    17  O   -0.001068  -0.000279  -0.001759   0.002081   0.000396   0.000524
    18  O    0.280869  -0.000269   0.001679  -0.001753   0.001266   0.000714
    19  H    0.277188  -0.000038  -0.000124   0.000200  -0.000331   0.000027
    20  H   -0.000038   0.429681  -0.007537  -0.004191  -0.016522   0.000012
    21  H   -0.000124  -0.007537   0.493178  -0.017285   0.004128  -0.000252
    22  H    0.000200  -0.004191  -0.017285   0.495893  -0.007362  -0.000240
    23  H   -0.000331  -0.016522   0.004128  -0.007362   0.410905  -0.000001
    24  H    0.000027   0.000012  -0.000252  -0.000240  -0.000001   0.324873
          Atomic-Atomic Spin Densities.
               1          2          3          4          5          6
     1  N    0.000000   0.000000   0.000000   0.000000   0.000000   0.000000
     2  C    0.000000   0.000000   0.000000   0.000000   0.000000   0.000000
     3  P    0.000000   0.000000   0.000000   0.000000   0.000000   0.000000
     4  O    0.000000   0.000000   0.000000   0.000000   0.000000   0.000000
     5  O    0.000000   0.000000   0.000000   0.000000   0.000000   0.000000
     6  O    0.000000   0.000000   0.000000   0.000000   0.000000   0.000000
     7  Ca   0.000000   0.000000   0.000000   0.000000   0.000000   0.000000
     8  H    0.000000   0.000000   0.000000   0.000000   0.000000   0.000000
     9  H    0.000000   0.000000   0.000000   0.000000   0.000000   0.000000
    10  H    0.000000   0.000000   0.000000   0.000000   0.000000   0.000000
    11  H    0.000000   0.000000   0.000000   0.000000   0.000000   0.000000
    12  H    0.000000   0.000000   0.000000   0.000000   0.000000   0.000000
    13  N    0.000000   0.000000   0.000000   0.000000   0.000000   0.000000
    14  C    0.000000   0.000000   0.000000   0.000000   0.000000   0.000000
    15  P    0.000000   0.000000   0.000000   0.000000   0.000000   0.000000
    16  O    0.000000   0.000000   0.000000   0.000000   0.000000   0.000000
    17  O    0.000000   0.000000   0.000000   0.000000   0.000000   0.000000
    18  O    0.000000   0.000000   0.000000   0.000000   0.000000   0.000000
    19  H    0.000000   0.000000   0.000000   0.000000   0.000000   0.000000
    20  H    0.000000   0.000000   0.000000   0.000000   0.000000   0.000000
    21  H    0.000000   0.000000   0.000000   0.000000   0.000000   0.000000
    22  H    0.000000   0.000000   0.000000   0.000000   0.000000   0.000000
    23  H    0.000000   0.000000   0.000000   0.000000   0.000000   0.000000
    24  H    0.000000   0.000000   0.000000   0.000000   0.000000   0.000000
               7          8          9         10         11         12
     1  N    0.000000   0.000000   0.000000   0.000000   0.000000   0.000000
     2  C    0.000000   0.000000   0.000000   0.000000   0.000000   0.000000
     3  P    0.000000   0.000000   0.000000   0.000000   0.000000   0.000000
     4  O    0.000000   0.000000   0.000000   0.000000   0.000000   0.000000
     5  O    0.000000   0.000000   0.000000   0.000000   0.000000   0.000000
     6  O    0.000000   0.000000   0.000000   0.000000   0.000000   0.000000
     7  Ca   0.000000   0.000000   0.000000   0.000000   0.000000   0.000000
     8  H    0.000000   0.000000   0.000000   0.000000   0.000000   0.000000
     9  H    0.000000   0.000000   0.000000   0.000000   0.000000   0.000000
    10  H    0.000000   0.000000   0.000000   0.000000   0.000000   0.000000
    11  H    0.000000   0.000000   0.000000   0.000000   0.000000   0.000000
    12  H    0.000000   0.000000   0.000000   0.000000   0.000000   0.000000
    13  N    0.000000   0.000000   0.000000   0.000000   0.000000   0.000000
    14  C    0.000000   0.000000   0.000000   0.000000   0.000000   0.000000
    15  P    0.000000   0.000000   0.000000   0.000000   0.000000   0.000000
    16  O    0.000000   0.000000   0.000000   0.000000   0.000000   0.000000
    17  O    0.000000   0.000000   0.000000   0.000000   0.000000   0.000000
    18  O    0.000000   0.000000   0.000000   0.000000   0.000000   0.000000
    19  H    0.000000   0.000000   0.000000   0.000000   0.000000   0.000000
    20  H    0.000000   0.000000   0.000000   0.000000   0.000000   0.000000
    21  H    0.000000   0.000000   0.000000   0.000000   0.000000   0.000000
    22  H    0.000000   0.000000   0.000000   0.000000   0.000000   0.000000
    23  H    0.000000   0.000000   0.000000   0.000000   0.000000   0.000000
    24  H    0.000000   0.000000   0.000000   0.000000   0.000000   0.000000
              13         14         15         16         17         18
     1  N    0.000000   0.000000   0.000000   0.000000   0.000000   0.000000
     2  C    0.000000   0.000000   0.000000   0.000000   0.000000   0.000000
     3  P    0.000000   0.000000   0.000000   0.000000   0.000000   0.000000
     4  O    0.000000   0.000000   0.000000   0.000000   0.000000   0.000000
     5  O    0.000000   0.000000   0.000000   0.000000   0.000000   0.000000
     6  O    0.000000   0.000000   0.000000   0.000000   0.000000   0.000000
     7  Ca   0.000000   0.000000   0.000000   0.000000   0.000000   0.000000
     8  H    0.000000   0.000000   0.000000   0.000000   0.000000   0.000000
     9  H    0.000000   0.000000   0.000000   0.000000   0.000000   0.000000
    10  H    0.000000   0.000000   0.000000   0.000000   0.000000   0.000000
    11  H    0.000000   0.000000   0.000000   0.000000   0.000000   0.000000
    12  H    0.000000   0.000000   0.000000   0.000000   0.000000   0.000000
    13  N    0.000000   0.000000   0.000000   0.000000   0.000000   0.000000
    14  C    0.000000   0.000000   0.000000   0.000000   0.000000   0.000000
    15  P    0.000000   0.000000   0.000000   0.000000   0.000000   0.000000
    16  O    0.000000   0.000000   0.000000   0.000000   0.000000   0.000000
    17  O    0.000000   0.000000   0.000000   0.000000   0.000000   0.000000
    18  O    0.000000   0.000000   0.000000   0.000000   0.000000   0.000000
    19  H    0.000000   0.000000   0.000000   0.000000   0.000000   0.000000
    20  H    0.000000   0.000000   0.000000   0.000000   0.000000   0.000000
    21  H    0.000000   0.000000   0.000000   0.000000   0.000000   0.000000
    22  H    0.000000   0.000000   0.000000   0.000000   0.000000   0.000000
    23  H    0.000000   0.000000   0.000000   0.000000   0.000000   0.000000
    24  H    0.000000   0.000000   0.000000   0.000000   0.000000   0.000000
              19         20         21         22         23         24
     1  N    0.000000   0.000000   0.000000   0.000000   0.000000   0.000000
     2  C    0.000000   0.000000   0.000000   0.000000   0.000000   0.000000
     3  P    0.000000   0.000000   0.000000   0.000000   0.000000   0.000000
     4  O    0.000000   0.000000   0.000000   0.000000   0.000000   0.000000
     5  O    0.000000   0.000000   0.000000   0.000000   0.000000   0.000000
     6  O    0.000000   0.000000   0.000000   0.000000   0.000000   0.000000
     7  Ca   0.000000   0.000000   0.000000   0.000000   0.000000   0.000000
     8  H    0.000000   0.000000   0.000000   0.000000   0.000000   0.000000
     9  H    0.000000   0.000000   0.000000   0.000000   0.000000   0.000000
    10  H    0.000000   0.000000   0.000000   0.000000   0.000000   0.000000
    11  H    0.000000   0.000000   0.000000   0.000000   0.000000   0.000000
    12  H    0.000000   0.000000   0.000000   0.000000   0.000000   0.000000
    13  N    0.000000   0.000000   0.000000   0.000000   0.000000   0.000000
    14  C    0.000000   0.000000   0.000000   0.000000   0.000000   0.000000
    15  P    0.000000   0.000000   0.000000   0.000000   0.000000   0.000000
    16  O    0.000000   0.000000   0.000000   0.000000   0.000000   0.000000
    17  O    0.000000   0.000000   0.000000   0.000000   0.000000   0.000000
    18  O    0.000000   0.000000   0.000000   0.000000   0.000000   0.000000
    19  H    0.000000   0.000000   0.000000   0.000000   0.000000   0.000000
    20  H    0.000000   0.000000   0.000000   0.000000   0.000000   0.000000
    21  H    0.000000   0.000000   0.000000   0.000000   0.000000   0.000000
    22  H    0.000000   0.000000   0.000000   0.000000   0.000000   0.000000
    23  H    0.000000   0.000000   0.000000   0.000000   0.000000   0.000000
    24  H    0.000000   0.000000   0.000000   0.000000   0.000000   0.000000
 Mulliken charges and spin densities:
               1          2
     1  N   -0.605497   0.000000
     2  C   -0.132391   0.000000
     3  P    0.799825   0.000000
     4  O   -0.623427   0.000000
     5  O   -0.691749   0.000000
     6  O   -0.493851   0.000000
     7  Ca   1.322002   0.000000
     8  H    0.375036   0.000000
     9  H    0.266462   0.000000
    10  H    0.152759   0.000000
    11  H    0.156777   0.000000
    12  H    0.274236   0.000000
    13  N   -0.628699   0.000000
    14  C   -0.155714   0.000000
    15  P    0.860079   0.000000
    16  O   -0.483758   0.000000
    17  O   -0.613665   0.000000
    18  O   -0.469444   0.000000
    19  H    0.409791   0.000000
    20  H    0.270440   0.000000
    21  H    0.171167   0.000000
    22  H    0.171117   0.000000
    23  H    0.284729   0.000000
    24  H    0.383779   0.000000
 Sum of Mulliken charges =   1.00000   0.00000
 Mulliken charges and spin densities with hydrogens summed into heavy atoms:
               1          2
     1  N   -0.064799   0.000000
     2  C    0.177144   0.000000
     3  P    0.799825   0.000000
     4  O   -0.623427   0.000000
     5  O   -0.691749   0.000000
     6  O   -0.118816   0.000000
     7  Ca   1.322002   0.000000
    13  N   -0.073531   0.000000
    14  C    0.186570   0.000000
    15  P    0.860079   0.000000
    16  O   -0.099979   0.000000
    17  O   -0.613665   0.000000
    18  O   -0.059653   0.000000
 Electronic spatial extent (au):  <R**2>=           3512.0397
 Charge=              1.0000 electrons
 Dipole moment (field-independent basis, Debye):
    X=              0.7873    Y=              0.3900    Z=             -4.4508  Tot=              4.5367
 Quadrupole moment (field-independent basis, Debye-Ang):
   XX=            -68.7884   YY=            -71.1000   ZZ=            -81.1257
   XY=              7.8097   XZ=              2.8003   YZ=             -0.5551
 Traceless Quadrupole moment (field-independent basis, Debye-Ang):
   XX=              4.8830   YY=              2.5714   ZZ=             -7.4543
   XY=              7.8097   XZ=              2.8003   YZ=             -0.5551
 Octapole moment (field-independent basis, Debye-Ang**2):
  XXX=              6.5991  YYY=              3.7581  ZZZ=            -50.2798  XYY=              2.9032
  XXY=            -12.8283  XXZ=             33.1821  XZZ=              0.2920  YZZ=              2.2066
  YYZ=              4.3720  XYZ=            -34.5201
 Hexadecapole moment (field-independent basis, Debye-Ang**3):
 XXXX=          -2463.6349 YYYY=           -581.0832 ZZZZ=           -553.0760 XXXY=           -116.2358
 XXXZ=             31.3609 YYYX=              3.0691 YYYZ=              7.7345 ZZZX=             23.3961
 ZZZY=             -5.1782 XXYY=           -407.6556 XXZZ=           -556.9239 YYZZ=           -193.3059
 XXYZ=              8.0321 YYXZ=              2.1358 ZZXY=             -5.0053
 N-N= 1.461250768741D+03 E-N=-7.649157388306D+03  KE= 1.998257066081D+03
                          Isotropic Fermi Contact Couplings
        Atom                 a.u.       MegaHertz       Gauss      10(-4) cm-1
     1  N(14)              0.00000       0.00000       0.00000       0.00000
     2  C(13)              0.00000       0.00000       0.00000       0.00000
     3  P(31)              0.00000       0.00000       0.00000       0.00000
     4  O(17)              0.00000      -0.00000      -0.00000      -0.00000
     5  O(17)              0.00000      -0.00000      -0.00000      -0.00000
     6  O(17)              0.00000      -0.00000      -0.00000      -0.00000
     8  H(1)               0.00000       0.00000       0.00000       0.00000
     9  H(1)               0.00000       0.00000       0.00000       0.00000
    10  H(1)               0.00000       0.00000       0.00000       0.00000
    11  H(1)               0.00000       0.00000       0.00000       0.00000
    12  H(1)               0.00000       0.00000       0.00000       0.00000
    13  N(14)              0.00000       0.00000       0.00000       0.00000
    14  C(13)              0.00000       0.00000       0.00000       0.00000
    15  P(31)              0.00000       0.00000       0.00000       0.00000
    16  O(17)              0.00000      -0.00000      -0.00000      -0.00000
    17  O(17)              0.00000      -0.00000      -0.00000      -0.00000
    18  O(17)              0.00000      -0.00000      -0.00000      -0.00000
    19  H(1)               0.00000       0.00000       0.00000       0.00000
    20  H(1)               0.00000       0.00000       0.00000       0.00000
    21  H(1)               0.00000       0.00000       0.00000       0.00000
    22  H(1)               0.00000       0.00000       0.00000       0.00000
    23  H(1)               0.00000       0.00000       0.00000       0.00000
    24  H(1)               0.00000       0.00000       0.00000       0.00000
 --------------------------------------------------------
       Center         ----  Spin Dipole Couplings  ----
                      3XX-RR        3YY-RR        3ZZ-RR
 --------------------------------------------------------
     1   Atom        0.000000      0.000000      0.000000
     2   Atom        0.000000      0.000000      0.000000
     3   Atom        0.000000      0.000000      0.000000
     4   Atom        0.000000      0.000000      0.000000
     5   Atom        0.000000      0.000000      0.000000
     6   Atom        0.000000      0.000000      0.000000
     7   Atom        0.000000      0.000000      0.000000
     8   Atom        0.000000      0.000000      0.000000
     9   Atom        0.000000      0.000000      0.000000
    10   Atom        0.000000      0.000000      0.000000
    11   Atom        0.000000      0.000000      0.000000
    12   Atom        0.000000      0.000000      0.000000
    13   Atom        0.000000      0.000000      0.000000
    14   Atom        0.000000      0.000000      0.000000
    15   Atom        0.000000      0.000000      0.000000
    16   Atom        0.000000      0.000000      0.000000
    17   Atom        0.000000      0.000000      0.000000
    18   Atom        0.000000      0.000000      0.000000
    19   Atom        0.000000      0.000000      0.000000
    20   Atom        0.000000      0.000000      0.000000
    21   Atom        0.000000      0.000000      0.000000
    22   Atom        0.000000      0.000000      0.000000
    23   Atom        0.000000      0.000000      0.000000
    24   Atom        0.000000      0.000000      0.000000
 --------------------------------------------------------
                        XY            XZ            YZ
 --------------------------------------------------------
     1   Atom        0.000000      0.000000      0.000000
     2   Atom        0.000000      0.000000      0.000000
     3   Atom        0.000000      0.000000      0.000000
     4   Atom        0.000000      0.000000      0.000000
     5   Atom        0.000000      0.000000      0.000000
     6   Atom        0.000000      0.000000      0.000000
     7   Atom        0.000000      0.000000      0.000000
     8   Atom        0.000000      0.000000      0.000000
     9   Atom        0.000000      0.000000      0.000000
    10   Atom        0.000000      0.000000      0.000000
    11   Atom        0.000000      0.000000      0.000000
    12   Atom        0.000000      0.000000      0.000000
    13   Atom        0.000000      0.000000      0.000000
    14   Atom        0.000000      0.000000      0.000000
    15   Atom        0.000000      0.000000      0.000000
    16   Atom        0.000000      0.000000      0.000000
    17   Atom        0.000000      0.000000      0.000000
    18   Atom        0.000000      0.000000      0.000000
    19   Atom        0.000000      0.000000      0.000000
    20   Atom        0.000000      0.000000      0.000000
    21   Atom        0.000000      0.000000      0.000000
    22   Atom        0.000000      0.000000      0.000000
    23   Atom        0.000000      0.000000      0.000000
    24   Atom        0.000000      0.000000      0.000000
 --------------------------------------------------------


 ---------------------------------------------------------------------------------
              Anisotropic Spin Dipole Couplings in Principal Axis System
 ---------------------------------------------------------------------------------

       Atom             a.u.   MegaHertz   Gauss  10(-4) cm-1        Axes

              Baa     0.0000     0.000     0.000     0.000  1.0000  0.0000  0.0000
     1 N(14)  Bbb     0.0000     0.000     0.000     0.000 -0.0000  1.0000  0.0000
              Bcc     0.0000     0.000     0.000     0.000  0.0000  0.0000  1.0000
 
[...]
 0022757,-0.00024513,0.00021901,-0.00008307,0.00017040,0.00001650,-0.00
 005778,-0.00010235,0.00007472,0.00001643,0.00005796,0.00000363,0.00043
 540,0.00018204,-0.00056698,0.00124309,0.00050934,-0.00378358,-0.005533
 07,-0.00204107,0.00112007,-0.29904581,0.01015980,-0.09763420,0.3740650
 4,-0.00051302,0.00032309,0.00012688,0.00031556,-0.00016763,0.00013625,
 -0.00104062,-0.00112982,-0.00053399,-0.00026434,0.00114732,0.00051723,
 0.00259065,0.00200264,0.00157360,0.00009026,0.00032854,0.00005403,0.00
 278916,-0.00177456,0.00161759,0.00000401,-0.00005675,-0.00000907,0.000
 02816,0.00002276,-0.00003079,-0.00001645,0.00010259,-0.00005267,-0.000
 08091,0.00004446,0.00002999,0.00023519,-0.00017770,-0.00021542,-0.0001
 7864,0.00140136,0.00016997,0.00067384,0.00423253,0.00085455,-0.0010191
 0,-0.05099165,-0.00358914,-0.00374681,0.07224416,-0.00046863,-0.000088
 63,0.00044811,-0.00008110,-0.00009655,0.00010375,0.00146664,-0.0005128
 6,-0.00108707,-0.00098890,0.00048054,0.00075126,-0.00032078,0.00074653
 ,0.00140184,-0.00043535,0.00038979,0.00015298,0.00328912,0.00133749,-0
 .00089588,0.00015107,-0.00009799,-0.00000196,-0.00004403,0.00006444,-0
 .00001031,-0.00000032,-0.00001511,0.00001149,-0.00004510,0.00000854,0.
 00003844,0.00005845,-0.00000188,-0.00031577,-0.00079932,-0.00002037,-0
 .00972186,-0.02562097,0.00020786,-0.00376851,-0.12820768,0.00225494,-0
 .13324765,0.18935797,0.12083634,0.61214533,-0.00344791,0.00017097,0.00
 127216,0.00039622,-0.00111554,0.00040108,0.00458354,-0.00374942,-0.000
 98205,-0.00429178,0.00431293,-0.00022092,-0.00392115,0.00742855,0.0000
 2396,-0.00205426,0.00263409,-0.00038615,-0.02779216,-0.00694857,-0.017
 64539,0.00023623,-0.00052561,0.00040700,-0.00038723,0.00046365,-0.0000
 0471,-0.00016453,0.00021134,-0.00004230,-0.00021996,0.00022508,0.00007
 515,0.00081901,-0.00016111,-0.00186134,0.00568314,0.00366123,0.0003315
 1,-0.00393271,-0.01675089,-0.00461765,-0.18854322,-0.19877906,0.009910
 61,-0.01892415,-0.02295301,-0.00910409,0.23025717,-0.00249576,0.001750
 42,0.00040557,0.00112090,-0.00069473,0.00071948,-0.00482532,-0.0054193
 2,-0.00285035,-0.00181445,0.00467915,0.00137876,0.00918955,0.00350789,
 0.00284795,0.00053303,0.00131273,0.00037122,0.00270081,-0.01137524,0.0
 0109675,0.00010730,-0.00024553,-0.00001706,0.00021640,0.00006016,-0.00
 021670,-0.00008656,0.00043068,-0.00021921,-0.00034278,0.00021799,0.000
 10480,0.00098096,-0.00088807,-0.00104377,0.00207078,0.00394106,0.00034
 610,-0.01314967,-0.01038800,-0.00417608,-0.20495012,-0.40961850,0.0154
 1170,-0.00705040,0.00213105,-0.00343872,0.23527950,0.45323786,0.000169
 52,-0.00039504,0.00131674,0.00009101,0.00049473,0.00028536,-0.00008283
 ,-0.00220961,-0.00481484,-0.00308590,0.00351587,0.00230274,0.00146581,
 0.00178746,0.00414357,-0.00014837,0.00063578,0.00082765,-0.01715438,-0
 .00387221,-0.02394228,0.00020235,-0.00023962,-0.00006461,0.00013707,-0
 .00001992,0.00007108,0.00016058,-0.00009045,-0.00001782,-0.00011534,-0
 .00009653,0.00013810,-0.00113475,-0.00004203,0.00034515,0.00090684,0.0
 0275503,-0.00090518,0.00872478,0.01998652,0.00094413,0.01069152,0.0215
 9385,-0.07787835,-0.01264500,-0.01174734,0.01124533,0.01516837,-0.0119
 3014,0.08056018,0.00041510,-0.00118797,-0.00005611,-0.00188733,-0.0001
 3619,-0.00065857,0.01536228,0.00295044,0.00373501,-0.00251101,-0.00481
 644,-0.00524684,-0.03750076,-0.01124560,-0.01836322,-0.00346214,0.0015
 2385,-0.00120000,-0.00691743,0.00457326,0.00222807,0.00013503,-0.00033
 348,0.00062345,-0.00014844,0.00012153,0.00016670,-0.00009582,-0.000591
 49,0.00042939,0.00027696,-0.00007412,-0.00009797,0.00001855,0.00074624
 ,-0.00020321,0.00308063,0.00084377,0.00349280,-0.00192434,0.01062082,0
 .00153640,-0.13805785,0.09934778,0.06034737,-0.03544670,0.03293877,0.0
 1160513,0.01682173,-0.00502777,-0.00089583,0.56343799,-0.00111472,0.00
 074804,0.00035715,0.00093470,-0.00035115,0.00033198,-0.00374022,-0.002
 36262,-0.00227048,-0.00036754,0.00273268,0.00195898,0.00494063,0.00807
 203,0.00369405,0.00022847,0.00081973,0.00020671,0.00932999,-0.00345329
 ,0.00362864,-0.00007760,-0.00010567,-0.00006970,0.00005818,0.00003239,
 -0.00010735,-0.00002352,0.00029001,-0.00016240,-0.00021720,0.00008282,
 0.00009955,0.00064159,-0.00032237,-0.00046564,-0.00107542,0.00111001,-
 0.00101985,0.00273251,-0.00004866,0.00303675,0.09171176,-0.22239099,-0
 .10887485,0.01083274,-0.00080934,-0.00259646,0.00323317,-0.03212716,-0
 .02304040,-0.12737783,0.27452947,-0.00034099,0.00007776,0.00046825,-0.
 00047340,-0.00012681,-0.00012038,0.00044120,-0.00080588,-0.00087573,-0
 .00063072,0.00062830,0.00092450,-0.00749888,-0.00041298,0.00306228,-0.
 00036474,0.00039048,0.00015249,0.00338648,0.00094724,-0.00125188,0.000
 04397,-0.00005927,-0.00002192,0.00004799,-0.00003182,0.00001577,-0.000
 01006,-0.00007683,0.00015167,-0.00016281,-0.00002914,0.00009009,-0.000
 32770,-0.00052690,-0.00029404,-0.00177101,-0.00032691,0.00132757,0.018
 26188,-0.02114679,-0.00252712,0.05748278,-0.10920350,-0.13577760,-0.00
 601582,0.00450978,0.01086099,0.00033056,-0.00584235,0.01164371,0.00252
 112,0.13803687,0.15177383,-0.00056640,0.00143929,-0.00008409,0.0020757
 6,-0.00004139,0.00065703,-0.02196192,-0.00340759,-0.00419800,0.0039203
 0,0.00596314,0.00647123,0.01208505,0.00844773,0.00853244,0.00397098,-0
 .00183378,0.00119907,0.00984596,-0.00530516,-0.00050611,-0.00020231,0.
 00046045,-0.00064559,0.00016560,-0.00008247,-0.00021315,0.00008084,0.0
 0072486,-0.00048176,-0.00029901,0.00013575,0.00014365,0.00047965,-0.00
 064214,0.00029052,-0.00234123,-0.00059798,-0.00007778,0.00393645,-0.00
 316529,-0.00008239,-0.02263207,0.03297633,0.01744252,0.00748203,-0.004
 60659,-0.00154700,-0.00595278,-0.01191467,-0.00525745,-0.37722881,0.00
 985992,-0.06674489,0.38859465,0.00032441,0.00021806,-0.00014594,-0.000
 06884,0.00032032,0.00013742,-0.00218439,-0.00070908,0.00019400,0.00056
 190,0.00058894,0.00040358,0.00224712,-0.00607496,0.00029929,0.00157339
 ,-0.00126448,0.00042023,-0.00110225,-0.00167348,-0.00269038,0.00012056
 ,0.00012982,-0.00020568,0.00011677,-0.00007025,0.00002151,0.00006069,0
 .00004439,-0.00003788,-0.00001281,-0.00001541,0.00000037,-0.00047292,-
 0.00044812,0.00045387,-0.00049256,-0.00022087,0.00015150,-0.00009496,-
 0.00038087,-0.00011475,0.03055139,-0.00512255,0.00047815,0.00432266,-0
 .00205891,-0.00230144,-0.00418809,0.00132148,0.00072457,-0.00118049,-0
 .02589132,-0.00697575,-0.02969190,0.04094720,-0.00000359,0.00042527,-0
 .00026437,0.00168510,0.00030633,0.00053525,-0.00614973,-0.00036730,-0.
 00167168,0.00128068,0.00156824,0.00187906,0.00521530,0.00191224,-0.003
 92295,0.00192252,-0.00087005,0.00049282,0.00157715,-0.00353698,-0.0001
 6026,-0.00003686,0.00012810,-0.00025237,-0.00000229,0.00001044,-0.0001
 6372,0.00008198,0.00039466,-0.00045433,0.00008715,0.00009005,-0.000074
 10,0.00033475,0.00036694,0.00019190,-0.00087562,0.00000147,-0.00027561
 ,0.00091074,-0.00157217,-0.00092162,0.01580277,0.00246825,0.00550589,0
 .00189113,-0.00303321,0.00073198,-0.00196762,-0.00172954,-0.00266551,-
 0.06925009,-0.00621496,-0.03399100,0.04799680,0.00938553,0.03777296,-0
 .00005499,-0.00003005,0.00002695,-0.00018372,-0.00014476,-0.00017350,0
 .00165165,0.00061110,0.00134801,-0.00004341,-0.00026446,-0.00101874,-0
 .00207024,-0.00004699,0.00090212,-0.00021868,0.00007096,-0.00024536,0.
 00033554,0.00092077,0.00205658,-0.00004472,0.00000595,0.00009595,-0.00
 000256,0.00000748,0.00001328,-0.00002672,-0.00007374,0.00006220,0.0000
 1522,0.00004210,-0.00004880,0.00000312,0.00001774,-0.00002571,-0.06518
 140,0.01732189,0.08569840,0.00051158,-0.00167276,-0.03782446,-0.005516
 21,-0.00191098,0.00078176,-0.00077235,0.00023261,-0.00240244,0.0010139
 6,0.00025606,0.00036954,0.00116194,-0.00037239,-0.00024756,-0.00038093
 ,-0.00006274,-0.00046627,0.07231279,-0.00007288,0.00000865,0.00004906,
 0.00004945,-0.00005383,-0.00000312,0.00015734,0.00030936,0.00022433,0.
 00003287,-0.00019466,-0.00039840,-0.00018639,0.00023399,-0.00024218,-0
 .00001778,-0.00012715,-0.00003626,0.00005886,0.00069005,0.00351864,0.0
 0001326,0.00005145,-0.00001670,-0.00000560,0.00001512,0.00000745,-0.00
 000600,0.00000232,-0.00000086,-0.00000213,0.00002059,-0.00001896,0.000
 03494,0.00000878,-0.00002801,0.00846287,-0.02904944,0.02131722,-0.0023
 1180,-0.00213685,-0.00494473,-0.00023319,-0.00074397,-0.00065610,0.000
 48533,0.00014359,0.00081590,-0.00005928,-0.00081099,0.00072180,-0.0004
 5705,0.00030945,0.00026736,0.00023699,-0.00008010,0.00016709,-0.012991
 49,0.03338128,-0.00008916,-0.00001570,0.00009894,0.00001483,-0.0000134
 1,0.00004139,0.00026331,-0.00014239,-0.00031147,-0.00030759,0.00010465
 ,0.00007424,0.00000045,0.00002770,0.00015369,-0.00012057,0.00009770,0.
 00001249,0.00075616,0.00018314,-0.00123347,0.00004697,-0.00002442,0.00
 002867,-0.00000147,0.00002033,0.00000974,-0.00000068,0.00000335,-0.000
 00480,-0.00000595,0.00000100,0.00000893,0.00000510,0.00000452,-0.00002
 078,0.06917126,-0.01853308,-0.40809959,0.00219995,0.00223266,-0.016455
 86,-0.00256927,-0.00050916,0.00047140,-0.00008855,-0.00011450,-0.00072
 165,0.00020612,-0.00003157,0.00036884,0.00021303,-0.00007215,0.0003333
 3,0.00004521,0.00001494,-0.00009585,-0.07233304,0.01262085,0.42938323,
 0.00004443,-0.00004013,0.00001209,-0.00003876,0.00002649,-0.00000099,0
 .00017432,0.00006952,-0.00020061,-0.00006339,-0.00012019,0.00015365,-0
 .00000163,-0.00011623,0.00034506,-0.00001278,-0.00002423,0.00003985,-0
 .00074788,0.00071568,-0.00030421,0.00002065,-0.00000016,-0.00001059,-0
 .00000056,-0.00000240,0.00000748,0.00000513,-0.00001077,0.00000442,0.0
 0000502,-0.00001152,0.00000554,-0.00003985,0.00000481,0.00002350,-0.02
 382052,0.01755654,0.00768773,-0.16222475,0.11510087,0.06121647,-0.0039
 5829,0.00285953,0.00514500,-0.00066303,-0.00030739,-0.00110779,0.00107
 972,-0.00047260,-0.00058910,0.00075637,-0.00026746,-0.00055309,-0.0002
 7066,0.00001108,-0.00016025,0.00141512,0.00055028,0.00076873,0.1834211
 2,0.00000625,-0.00000907,-0.00000813,-0.00000643,0.00000195,-0.0000038
 6,0.00001896,0.00002151,0.00001821,0.00000335,-0.00004343,-0.00001203,
 -0.00005030,-0.00001434,-0.00004014,0.00000064,-0.00000172,-0.00000583
 ,-0.00015156,0.00019559,0.00021285,-0.00000599,0.00000074,-0.00000121,
 -0.00000244,0.00000035,0.00000245,0.00000001,-0.00000137,0.00000083,0.
 00000277,-0.00000150,-0.00000091,0.00000212,0.00000631,0.00000048,-0.0
 0367476,0.00407540,0.00256527,0.11608620,-0.15848849,-0.06299468,-0.00
 396557,0.00239278,0.00114064,-0.00021641,-0.00027653,-0.00057303,0.000
 55992,-0.00090866,-0.00013597,-0.00050803,0.00128018,0.00193409,0.0002
 0120,-0.00006117,0.00001113,0.00056301,0.00064130,0.00033005,-0.126093
 57,0.16662815,-0.00005729,0.00003586,0.00003827,0.00004233,-0.00000320
 ,0.00003177,-0.00018941,-0.00017551,-0.00033665,-0.00008760,0.00012788
 ,0.00023808,0.00052973,0.00025324,0.00057396,0.00004004,0.00001421,0.0
 0006051,0.00045440,-0.00002293,-0.00020583,0.00002056,-0.00000459,-0.0
 0001542,0.00000469,0.00000076,-0.00000283,0.00000268,0.00001627,-0.000
 00969,-0.00001604,-0.00000143,0.00001206,-0.00000016,-0.00004287,-0.00
 002203,-0.01887230,0.01375846,0.00588012,0.07497321,-0.07084126,-0.082
 03495,0.01836298,-0.02078930,-0.00612428,-0.00132271,0.00145042,0.0019
 0276,-0.00249332,0.00247421,0.00123921,0.00242517,-0.00011815,-0.00720
 039,-0.00155905,-0.00002805,-0.00043074,0.00032511,0.00087793,0.001518
 40,-0.06539042,0.06974920,0.08509799,-0.00006404,0.00000400,0.00014145
 ,0.00004124,0.00001641,0.00006051,-0.00004333,-0.00045503,-0.00054238,
 -0.00030307,0.00028210,0.00040330,0.00030778,0.00040922,0.00045207,-0.
 00002001,0.00015891,0.00006004,-0.00007080,0.00034221,-0.00139062,0.00
 001292,-0.00004585,-0.00000261,0.00000180,0.00001157,0.00000165,0.0000
 0934,0.00000934,-0.00001252,-0.00001401,-0.00000791,0.00001923,-0.0000
 4412,-0.00001236,0.00000793,-0.02038901,-0.02603074,-0.00377429,-0.079
 02774,-0.08673691,0.00784706,-0.00253807,-0.00512471,0.00404499,-0.000
 28145,0.00037793,-0.00007614,0.00111001,-0.00012920,0.00023390,0.00063
 726,0.00077251,-0.00083135,-0.00067154,-0.00016960,-0.00010318,0.00021
 319,0.00015024,0.00088054,0.00843235,0.01886644,-0.00326839,0.09111021
 ,-0.00004197,0.00000249,0.00003067,0.00000746,-0.00000929,0.00000961,0
 .00007934,-0.00006283,-0.00010521,-0.00008520,0.00005864,0.00006185,0.
 00004430,0.00009308,0.00013874,-0.00003096,0.00003157,0.00001364,0.000
 48510,0.00011755,-0.00010757,0.00001704,-0.00000689,0.00000065,-0.0000
 0029,0.00000615,-0.00000136,-0.00000073,0.00000319,-0.00000189,-0.0000
 0442,0.00000160,0.00000476,0.00001517,-0.00000642,-0.00002591,-0.00211
 917,0.00401825,-0.00118819,-0.08844196,-0.27455225,0.02329873,-0.00170
 936,-0.00696139,-0.00138567,0.00071092,0.00061210,0.00037208,-0.000295
 24,0.00105054,0.00076430,0.00053519,0.00059972,-0.00014699,-0.00029778
 ,-0.00002506,-0.00011405,-0.00030628,-0.00010681,-0.00026237,-0.007137
 38,-0.01627920,0.00401195,0.09845052,0.29009318,0.00010173,-0.00009356
 ,0.00007341,-0.00006600,0.00006441,0.00000612,0.00028616,0.00004761,-0
 .00026349,-0.00015320,-0.00008365,0.00020374,-0.00023804,-0.00024591,0
 .00023041,-0.00004151,-0.00000528,0.00004434,-0.00081538,0.00074127,-0
 .00187914,0.00002509,-0.00001372,0.00000103,-0.00000121,-0.00000200,0.
 00001329,0.00001426,-0.00002770,0.00000935,0.00001165,-0.00001968,0.00
 000618,-0.00012788,0.00004169,0.00009246,-0.01380793,-0.01811482,0.000
 02943,0.01185104,0.03133320,-0.04899472,0.00765500,0.02421865,0.003547
 73,-0.00105356,-0.00188233,-0.00059372,0.00510199,0.00457181,-0.005739
 71,-0.00116158,-0.00253545,0.00098323,0.00023549,0.00026929,0.00008701
 ,-0.00031196,-0.00132142,0.00063995,-0.00432881,-0.01184181,0.00172275
 ,-0.00453964,-0.02489500,0.04928807,-0.00012802,0.00024970,-0.00000563
 ,0.00039117,-0.00002064,0.00002170,-0.00361209,-0.00068425,0.00150114,
 0.00065790,0.00110847,-0.00068184,0.00035661,0.00120444,-0.00201365,0.
 00061499,-0.00019825,-0.00016147,0.00304390,-0.00367488,0.00007514,-0.
 00025480,0.00009443,-0.00003885,0.00002146,-0.00001871,-0.00003796,-0.
 00000820,0.00010731,-0.00006912,-0.00004475,0.00005948,-0.00003455,0.0
 0006340,-0.00005810,0.00003067,-0.15422458,0.15531446,0.02561861,-0.02
 292534,0.02493881,0.00323656,0.00045075,0.00114647,-0.00157352,0.00003
 495,-0.00019593,0.00036717,-0.00092442,-0.00025188,0.00068939,-0.00101
 668,-0.00003439,0.00039669,0.00168904,0.00025428,0.00035889,-0.0039460
 1,0.00601675,0.00102114,-0.00366215,-0.00143796,-0.00407387,0.00148553
 ,0.00006370,0.00169212,0.18187185,0.00006633,0.00007768,-0.00013496,0.
 00017118,-0.00000500,-0.00004266,-0.00195913,0.00120977,0.00074955,0.0
 0130312,-0.00021549,-0.00075750,0.00214453,-0.00146172,-0.00210997,0.0
 0040966,-0.00079212,0.00011945,-0.00000559,-0.00590549,0.00205772,0.00
 002823,0.00021367,-0.00009508,0.00000154,-0.00002911,-0.00001595,-0.00
 000392,0.00005411,-0.00001613,-0.00001171,0.00003209,-0.00004080,0.000
 01627,-0.00001909,0.00004066,0.19653467,-0.27520483,-0.06237969,-0.009
 84923,0.00428763,0.00137689,0.00126131,0.00028117,0.00102648,-0.000224
 03,-0.00008259,-0.00019991,-0.00067197,0.00010625,0.00009035,-0.000068
 89,-0.00082857,0.00003662,0.00052375,0.00058803,0.00010360,-0.00253735
 ,-0.00248370,0.00386220,-0.00216998,0.00080071,-0.00062013,-0.00102324
 ,0.00133261,0.00011811,-0.18394448,0.27798320,-0.00002514,-0.00020521,
 -0.00002607,-0.00068194,-0.00024664,-0.00036123,0.00493308,0.00100312,
 0.00245854,-0.00046582,-0.00060619,-0.00148595,-0.00384972,-0.00156342
 ,0.00087214,-0.00080905,0.00046323,-0.00048898,-0.00051623,0.00305751,
 0.00098886,-0.00003927,-0.00009810,0.00023820,-0.00003266,0.00003070,0
 .00004856,-0.00005716,-0.00020980,0.00018161,0.00006177,0.00003560,-0.
 00006174,0.00000898,0.00009172,-0.00008808,0.02022595,-0.04271790,-0.0
 6400400,-0.01121122,0.01674008,0.00300212,-0.00461964,0.00333336,0.002
 16084,0.00047563,-0.00030543,-0.00072601,0.00096715,-0.00035678,-0.000
 93025,0.00172844,-0.00146576,0.00033033,-0.00051371,0.00003731,-0.0015
 7056,0.02352238,-0.03294563,-0.00618666,-0.00291063,-0.00024080,-0.002
 13135,0.00018975,-0.00065925,0.00054611,-0.02625117,0.05681367,0.06734
 924,0.00009650,0.00004587,-0.00001875,0.00008632,0.00007410,0.00001721
 ,-0.00105388,-0.00003702,-0.00034412,0.00029554,0.00013071,0.00030872,
 0.00141910,0.00031035,0.00064382,0.00031317,-0.00020254,0.00011019,-0.
 00043189,-0.00028703,-0.00056452,-0.00004561,0.00004508,-0.00005811,0.
 00000857,-0.00003591,-0.00000412,0.00001574,0.00002857,-0.00001555,-0.
 00002712,-0.00001204,0.00000720,-0.00012470,-0.00006981,0.00004412,0.0
 0006311,-0.00022856,-0.00067961,-0.00226597,0.00081628,0.00038589,-0.0
 1561860,-0.00639228,-0.03708790,-0.02158323,-0.00535334,-0.03504591,-0
 .00144448,0.00005589,0.00209826,0.00409348,-0.00060788,0.00306035,-0.0
 0181868,-0.00042272,-0.00012946,-0.00019217,0.00009442,-0.00007653,0.0
 0015001,-0.00019786,0.00014967,0.00010557,0.00006199,-0.00032782,0.000
 06549,0.00000893,-0.00012977,0.03789373,0.00007048,-0.00010648,0.00000
 174,-0.00006485,0.00003630,-0.00001886,0.00016375,0.00030258,0.0001265
 3,0.00003959,-0.00019038,-0.00012848,-0.00043434,-0.00031416,-0.000314
 18,-0.00000727,-0.00010326,-0.00001279,-0.00044862,0.00017107,0.000069
 66,-0.00000515,0.00001974,0.00000519,-0.00002889,0.00000741,0.00000627
 ,0.00000390,-0.00001884,0.00000880,0.00001528,-0.00000306,-0.00001051,
 -0.00005441,0.00005905,-0.00001000,-0.00024171,-0.00003775,0.00161640,
 0.00384918,0.00120009,0.00066809,0.00192043,0.00195649,0.00373581,-0.0
 1447941,-0.02721073,-0.11757149,-0.00198265,-0.00127103,0.00074898,-0.
 00119628,-0.00191539,-0.00111658,0.00061733,-0.00006162,0.00009890,0.0
 0036430,-0.00002843,0.00021567,-0.00012080,0.00004054,-0.00012298,-0.0
 0011586,-0.00001054,-0.00032371,-0.00003882,0.00006078,0.00001461,0.01
 217480,0.02741760,0.00019923,0.00004975,-0.00015571,0.00008689,0.00007
 238,-0.00000945,-0.00106303,0.00006445,0.00008458,0.00044713,-0.000050
 02,0.00005993,0.00126076,0.00011444,0.00024717,0.00030454,-0.00020687,
 0.00002110,-0.00110802,-0.00018147,-0.00045587,-0.00005140,0.00004692,
 -0.00003401,0.00001993,-0.00002644,0.00001040,0.00001021,0.00002363,-0
 .00001960,0.00000802,-0.00001226,-0.00000246,-0.00007705,-0.00003040,0
 .00016876,0.00035103,0.00015127,0.00003976,-0.00159023,-0.00064267,0.0
 0129716,-0.00568993,-0.00073992,-0.01354080,-0.07104671,-0.11036275,-0
 .48870386,0.00512989,0.00212393,0.00152676,0.00608133,-0.00233708,-0.0
 0005799,-0.00110299,-0.00049170,-0.00028220,-0.00010442,0.00002477,-0.
 00001310,0.00014698,-0.00010680,0.00019826,0.00019870,0.00018646,-0.00
 005382,-0.00006759,0.00001748,-0.00011568,0.06765674,0.11231292,0.4997
 9069\\-0.00000273,0.00000161,0.00000846,0.00001875,-0.00000172,0.00000
 097,-0.00000116,-0.00003624,-0.00002881,-0.00000701,0.00000581,0.00000
 986,0.00000872,-0.00000156,-0.00001152,-0.00000746,0.00001574,0.000018
 80,0.00000929,0.00000440,0.00000926,-0.00000210,-0.00001404,-0.0000107
 4,0.00000287,-0.00000174,0.00000136,-0.00000055,-0.00000518,-0.0000039
 7,-0.00000486,-0.00000541,-0.00000027,-0.00000047,-0.00000104,0.000002
 08,0.00001608,0.00003380,0.00000085,-0.00001686,-0.00000813,-0.0000016
 4,0.00000735,-0.00000290,-0.00000048,-0.00000905,0.00000216,0.00000048
 ,0.00000185,0.00000241,0.00000386,-0.00000531,0.00000777,-0.00000890,-
 0.00000074,-0.00000106,0.00000262,-0.00000675,-0.00001093,0.00000303,0
 .00000133,0.00000885,-0.00000420,0.00000111,0.00000616,0.00000370,-0.0
 0000245,-0.00000762,0.00000387,0.00000014,0.00000885,0.00000136\\\@
 The archive entry for this job was punched.


 NOTHING WILL BE ATTEMPTED IF ALL POSSIBLE OBJECTIONS
 MUST FIRST BE OVERCOME.

                               -- THE GOLDEN PRINCIPLE,
                    PAUL DICKSON'S "THE OFFICIAL RULES"
 Job cpu time:       0 days 12 hours 23 minutes 33.1 seconds.
 Elapsed time:       0 days  0 hours 21 minutes 22.3 seconds.
 File lengths (MBytes):  RWF=   1034 Int=      0 D2E=      0 Chk=     28 Scr=      1
 Normal termination of Gaussian 16 at Thu Sep  5 02:32:54 2024.
