 Entering Gaussian System, Link 0=g16
 Initial command:
 /apps/gaussian/g16c01/g16/l1.exe "/jobfs/124198195.gadi-pbs/Gau-221764.inp" -scrdir="/jobfs/124198195.gadi-pbs/"
 Entering Link 1 = /apps/gaussian/g16c01/g16/l1.exe PID=    221765.
  
 Copyright (c) 1988-2019, Gaussian, Inc.  All Rights Reserved.
  
 This is part of the Gaussian(R) 16 program.  It is based on
 the Gaussian(R) 09 system (copyright 2009, Gaussian, Inc.),
 the Gaussian(R) 03 system (copyright 2003, Gaussian, Inc.),
 the Gaussian(R) 98 system (copyright 1998, Gaussian, Inc.),
 the Gaussian(R) 94 system (copyright 1995, Gaussian, Inc.),
 the Gaussian 92(TM) system (copyright 1992, Gaussian, Inc.),
 the Gaussian 90(TM) system (copyright 1990, Gaussian, Inc.),
 the Gaussian 88(TM) system (copyright 1988, Gaussian, Inc.),
 the Gaussian 86(TM) system (copyright 1986, Carnegie Mellon
 University), and the Gaussian 82(TM) system (copyright 1983,
 Carnegie Mellon University). Gaussian is a federally registered
 trademark of Gaussian, Inc.
  
 This software contains proprietary and confidential information,
 including trade secrets, belonging to Gaussian, Inc.
  
 This software is provided under written license and may be
 used, copied, transmitted, or stored only in accord with that
 written license.
  
 The following legend is applicable only to US Government
 contracts under FAR:
  
                    RESTRICTED RIGHTS LEGEND
  
 Use, reproduction and disclosure by the US Government is
 subject to restrictions as set forth in subparagraphs (a)
 and (c) of the Commercial Computer Software - Restricted
 Rights clause in FAR 52.227-19.
  
 Gaussian, Inc.
 340 Quinnipiac St., Bldg. 40, Wallingford CT 06492
  
  
 ---------------------------------------------------------------
 Warning -- This program may not be used in any manner that
 competes with the business of Gaussian, Inc. or will provide
 assistance to any competitor of Gaussian, Inc.  The licensee
 of this program is prohibited from giving any competitor of
 Gaussian, Inc. access to this program.  By using this program,
 the user acknowledges that Gaussian, Inc. is engaged in the
 business of creating and licensing software in the field of
 computational chemistry and represents and warrants to the
 licensee that it is not a competitor of Gaussian, Inc. and that
 it will not use this program in any manner prohibited above.
 ---------------------------------------------------------------
  

 Cite this work as:
 Gaussian 16, Revision C.01,
 M. J. Frisch, G. W. Trucks, H. B. Schlegel, G. E. Scuseria, 
 M. A. Robb, J. R. Cheeseman, G. Scalmani, V. Barone, 
 G. A. Petersson, H. Nakatsuji, X. Li, M. Caricato, A. V. Marenich, 
 J. Bloino, B. G. Janesko, R. Gomperts, B. Mennucci, H. P. Hratchian, 
 J. V. Ortiz, A. F. Izmaylov, J. L. Sonnenberg, D. Williams-Young, 
 F. Ding, F. Lipparini, F. Egidi, J. Goings, B. Peng, A. Petrone, 
 T. Henderson, D. Ranasinghe, V. G. Zakrzewski, J. Gao, N. Rega, 
 G. Zheng, W. Liang, M. Hada, M. Ehara, K. Toyota, R. Fukuda, 
 J. Hasegawa, M. Ishida, T. Nakajima, Y. Honda, O. Kitao, H. Nakai, 
 T. Vreven, K. Throssell, J. A. Montgomery, Jr., J. E. Peralta, 
 F. Ogliaro, M. J. Bearpark, J. J. Heyd, E. N. Brothers, K. N. Kudin, 
 V. N. Staroverov, T. A. Keith, R. Kobayashi, J. Normand, 
 K. Raghavachari, A. P. Rendell, J. C. Burant, S. S. Iyengar, 
 J. Tomasi, M. Cossi, J. M. Millam, M. Klene, C. Adamo, R. Cammi, 
 J. W. Ochterski, R. L. Martin, K. Morokuma, O. Farkas, 
 J. B. Foresman, and D. J. Fox, Gaussian, Inc., Wallingford CT, 2019.
 
 ******************************************
 Gaussian 16:  ES64L-G16RevC.01  3-Jul-2019
                 5-Sep-2024 
 ******************************************
 %mem=60gb
 %nprocs=48
 Will use up to   48 processors via shared memory.
 %RWF=/scratch/gy60/or4187/rwf/AMPA.a.Cu.CONF1.B3LYP.rwf
 %NoSave
 %Chk=AMPA.a.Cu.CONF1.B3LYP.chk
 ----------------------------------------------------------------------
 #UM06/Def2TZVP OPT Freq=Noraman INT(grid=ultrafine) EmpiricalDispersio
 n=GD3 SCF=XQC Pop=NPA
 ----------------------------------------------------------------------
 1/18=20,19=15,26=4,38=1/1,3;
 2/9=110,12=2,17=6,18=5,40=1/2;
 3/5=44,7=101,11=2,25=1,30=1,71=1,74=-54,75=-5,116=2,124=31/1,2,3;
 4//1;
 5/5=2,8=3,13=1,38=5/2,8;
 6/7=2,8=2,9=2,10=2,28=1,40=-1/1,7;
 7//1,2,3,16;
 1/18=20,19=15,26=4/3(2);
 2/9=110/2;
 99//99;
 2/9=110/2;
 3/5=44,7=101,11=2,25=1,30=1,71=1,74=-54,75=-5,116=2,124=31/1,2,3;
 4/5=5,16=3,69=1/1;
 5/5=2,8=3,13=1,38=5/2,8;
 7//1,2,3,16;
 1/18=20,19=15,26=4/3(-5);
 2/9=110/2;
 6/7=2,8=2,9=2,10=2,19=2,28=1,40=-1/1,7;
 99/9=1/99;
 -----------------------------
 AMPA.a.Cu.CONF1.B3LYP.optfreq
 -----------------------------
 Symbolic Z-matrix:
 Charge =  1 Multiplicity = 2
 N                    -1.12605   1.87275   0.7039 
 C                    -2.30962   1.65576  -0.19365 
 P                    -2.01736   0.00625  -0.95105 
 O                    -1.70462  -0.85011   0.3187 
 O                    -0.90404   0.07425  -1.97978 
 O                    -3.42516  -0.43808  -1.57066 
 Cu                   -0.16572   0.11283   1.02113 
 H                    -3.37501  -0.73827  -2.49555 
 H                    -1.39775   2.36857   1.55389 
 H                    -3.21763   1.61431   0.41152 
 H                    -2.40116   2.45628  -0.93134 
 H                    -0.41615   2.44382   0.24131 
 N                     0.7951   -1.6755    1.21839 
 C                     2.15916  -1.65311   0.60966 
 P                     2.25401  -0.12531  -0.39792 
 O                     3.81089   0.09017  -0.62118 
 O                     1.55903   0.94359   0.45343 
 O                     1.62292  -0.34038  -1.81945 
 H                     0.60867  -0.16299  -1.9255 
 H                     0.83053  -2.02831   2.1756 
 H                     2.9121   -1.57602   1.39817 
 H                     2.3587   -2.55019   0.01829 
 H                     0.16149  -2.29046   0.70258 
 H                     4.07394   0.52309  -1.45396 
 

 GradGradGradGradGradGradGradGradGradGradGradGradGradGradGradGradGradGrad
 Berny optimization.
 Initialization pass.
                           ----------------------------
                           !    Initial Parameters    !
                           ! (Angstroms and Degrees)  !
 --------------------------                            --------------------------
 ! Name  Definition              Value          Derivative Info.                !
 --------------------------------------------------------------------------------
 ! R1    R(1,2)                  1.5012         estimate D2E/DX2                !
 ! R2    R(1,7)                  2.0298         estimate D2E/DX2                !
 ! R3    R(1,9)                  1.0209         estimate D2E/DX2                !
 ! R4    R(1,12)                 1.0218         estimate D2E/DX2                !
 ! R5    R(2,3)                  1.8385         estimate D2E/DX2                !
 ! R6    R(2,10)                 1.092          estimate D2E/DX2                !
 ! R7    R(2,11)                 1.0924         estimate D2E/DX2                !
 ! R8    R(3,4)                  1.5631         estimate D2E/DX2                !
 ! R9    R(3,5)                  1.5174         estimate D2E/DX2                !
 ! R10   R(3,6)                  1.601          estimate D2E/DX2                !
 ! R11   R(3,7)                  2.7073         estimate D2E/DX2                !
 ! R12   R(4,7)                  1.9465         estimate D2E/DX2                !
 ! R13   R(6,8)                  0.9737         estimate D2E/DX2                !
 ! R14   R(7,13)                 2.0397         estimate D2E/DX2                !
 ! R15   R(7,17)                 1.9968         estimate D2E/DX2                !
 ! R16   R(13,14)                1.4939         estimate D2E/DX2                !
 ! R17   R(13,20)                1.0208         estimate D2E/DX2                !
 ! R18   R(13,23)                1.0226         estimate D2E/DX2                !
 ! R19   R(14,15)                1.8326         estimate D2E/DX2                !
 ! R20   R(14,21)                1.093          estimate D2E/DX2                !
 ! R21   R(14,22)                1.0928         estimate D2E/DX2                !
 ! R22   R(15,16)                1.5875         estimate D2E/DX2                !
 ! R23   R(15,17)                1.5331         estimate D2E/DX2                !
 ! R24   R(15,18)                1.5701         estimate D2E/DX2                !
 ! R25   R(16,24)                0.9748         estimate D2E/DX2                !
 ! R26   R(18,19)                1.0351         estimate D2E/DX2                !
 ! A1    A(2,1,7)              109.9459         estimate D2E/DX2                !
 ! A2    A(2,1,9)              110.9891         estimate D2E/DX2                !
 ! A3    A(2,1,12)             110.9696         estimate D2E/DX2                !
 ! A4    A(7,1,9)              114.6391         estimate D2E/DX2                !
 ! A5    A(7,1,12)             103.0987         estimate D2E/DX2                !
 ! A6    A(9,1,12)             106.8825         estimate D2E/DX2                !
 ! A7    A(1,2,3)              104.5172         estimate D2E/DX2                !
 ! A8    A(1,2,10)             109.2524         estimate D2E/DX2                !
 ! A9    A(1,2,11)             111.3394         estimate D2E/DX2                !
 ! A10   A(3,2,10)             109.0527         estimate D2E/DX2                !
 ! A11   A(3,2,11)             113.1163         estimate D2E/DX2                !
 ! A12   A(10,2,11)            109.4132         estimate D2E/DX2                !
 ! A13   A(2,3,4)              100.8767         estimate D2E/DX2                !
 ! A14   A(2,3,5)              110.8385         estimate D2E/DX2                !
 ! A15   A(2,3,6)              105.5844         estimate D2E/DX2                !
 ! A16   A(2,3,7)               76.8969         estimate D2E/DX2                !
 ! A17   A(4,3,5)              115.3712         estimate D2E/DX2                !
 ! A18   A(4,3,6)              109.7704         estimate D2E/DX2                !
 ! A19   A(5,3,6)              113.2801         estimate D2E/DX2                !
 ! A20   A(5,3,7)               89.4439         estimate D2E/DX2                !
 ! A21   A(6,3,7)              153.4133         estimate D2E/DX2                !
 ! A22   A(3,6,8)              114.0724         estimate D2E/DX2                !
 ! A23   A(1,7,3)               66.2155         estimate D2E/DX2                !
 ! A24   A(1,7,4)               89.9131         estimate D2E/DX2                !
 ! A25   A(1,7,17)              90.2004         estimate D2E/DX2                !
 ! A26   A(3,7,13)             110.9849         estimate D2E/DX2                !
 ! A27   A(3,7,17)             113.5804         estimate D2E/DX2                !
 ! A28   A(4,7,13)              88.4861         estimate D2E/DX2                !
 ! A29   A(4,7,17)             141.8234         estimate D2E/DX2                !
 ! A30   A(13,7,17)             89.1629         estimate D2E/DX2                !
 ! A31   A(7,13,14)            112.1836         estimate D2E/DX2                !
 ! A32   A(7,13,20)            114.2102         estimate D2E/DX2                !
 ! A33   A(7,13,23)            100.7548         estimate D2E/DX2                !
 ! A34   A(14,13,20)           110.8301         estimate D2E/DX2                !
 ! A35   A(14,13,23)           111.6684         estimate D2E/DX2                !
 ! A36   A(20,13,23)           106.6579         estimate D2E/DX2                !
 ! A37   A(13,14,15)           106.4869         estimate D2E/DX2                !
 ! A38   A(13,14,21)           109.6399         estimate D2E/DX2                !
 ! A39   A(13,14,22)           112.0197         estimate D2E/DX2                !
 ! A40   A(15,14,21)           107.5895         estimate D2E/DX2                !
 ! A41   A(15,14,22)           112.1707         estimate D2E/DX2                !
 ! A42   A(21,14,22)           108.8141         estimate D2E/DX2                !
 ! A43   A(14,15,16)           103.96           estimate D2E/DX2                !
 ! A44   A(14,15,17)           104.624          estimate D2E/DX2                !
 ! A45   A(14,15,18)           111.271          estimate D2E/DX2                !
 ! A46   A(16,15,17)           115.3435         estimate D2E/DX2                !
 ! A47   A(16,15,18)           106.5861         estimate D2E/DX2                !
 ! A48   A(17,15,18)           114.5858         estimate D2E/DX2                !
 ! A49   A(15,16,24)           116.4293         estimate D2E/DX2                !
 ! A50   A(7,17,15)            105.0324         estimate D2E/DX2                !
 ! A51   A(15,18,19)           117.5897         estimate D2E/DX2                !
 ! A52   L(1,7,13,3,-1)        177.2004         estimate D2E/DX2                !
 ! A53   L(1,7,13,3,-2)        177.7992         estimate D2E/DX2                !
 ! D1    D(7,1,2,3)            -16.1126         estimate D2E/DX2                !
 ! D2    D(7,1,2,10)           100.4784         estimate D2E/DX2                !
 ! D3    D(7,1,2,11)          -138.5622         estimate D2E/DX2                !
 ! D4    D(9,1,2,3)           -144.0099         estimate D2E/DX2                !
 ! D5    D(9,1,2,10)           -27.419          estimate D2E/DX2                !
 ! D6    D(9,1,2,11)            93.5404         estimate D2E/DX2                !
 ! D7    D(12,1,2,3)            97.2953         estimate D2E/DX2                !
 ! D8    D(12,1,2,10)         -146.1137         estimate D2E/DX2                !
 ! D9    D(12,1,2,11)          -25.1543         estimate D2E/DX2                !
 ! D10   D(2,1,7,3)             11.5006         estimate D2E/DX2                !
 ! D11   D(2,1,7,4)            -14.4977         estimate D2E/DX2                !
 ! D12   D(2,1,7,17)           127.3257         estimate D2E/DX2                !
 ! D13   D(9,1,7,3)            137.3505         estimate D2E/DX2                !
 ! D14   D(9,1,7,4)            111.3522         estimate D2E/DX2                !
 ! D15   D(9,1,7,17)          -106.8244         estimate D2E/DX2                !
 ! D16   D(12,1,7,3)          -106.8796         estimate D2E/DX2                !
 ! D17   D(12,1,7,4)          -132.8779         estimate D2E/DX2                !
 ! D18   D(12,1,7,17)            8.9455         estimate D2E/DX2                !
 ! D19   D(1,2,3,4)             49.9652         estimate D2E/DX2                !
 ! D20   D(1,2,3,5)            -72.7181         estimate D2E/DX2                !
 ! D21   D(1,2,3,6)            164.244          estimate D2E/DX2                !
 ! D22   D(1,2,3,7)             11.5852         estimate D2E/DX2                !
 ! D23   D(10,2,3,4)           -66.7639         estimate D2E/DX2                !
 ! D24   D(10,2,3,5)           170.5528         estimate D2E/DX2                !
 ! D25   D(10,2,3,6)            47.5149         estimate D2E/DX2                !
 ! D26   D(10,2,3,7)          -105.1438         estimate D2E/DX2                !
 ! D27   D(11,2,3,4)           171.2466         estimate D2E/DX2                !
 ! D28   D(11,2,3,5)            48.5633         estimate D2E/DX2                !
 ! D29   D(11,2,3,6)           -74.4746         estimate D2E/DX2                !
 ! D30   D(11,2,3,7)           132.8667         estimate D2E/DX2                !
 ! D31   D(2,3,6,8)            130.1058         estimate D2E/DX2                !
 ! D32   D(4,3,6,8)           -121.9302         estimate D2E/DX2                !
 ! D33   D(5,3,6,8)              8.6359         estimate D2E/DX2                !
 ! D34   D(7,3,6,8)           -138.0937         estimate D2E/DX2                !
 ! D35   D(2,3,7,1)             -9.0401         estimate D2E/DX2                !
 ! D36   D(2,3,7,13)           173.1608         estimate D2E/DX2                !
 ! D37   D(2,3,7,17)           -88.1923         estimate D2E/DX2                !
 ! D38   D(5,3,7,1)            102.5228         estimate D2E/DX2                !
 ! D39   D(5,3,7,13)           -75.2764         estimate D2E/DX2                !
 ! D40   D(5,3,7,17)            23.3706         estimate D2E/DX2                !
 ! D41   D(6,3,7,1)           -107.7389         estimate D2E/DX2                !
 ! D42   D(6,3,7,13)            74.4619         estimate D2E/DX2                !
 ! D43   D(6,3,7,17)           173.1089         estimate D2E/DX2                !
 ! D44   D(3,7,13,14)          102.9018         estimate D2E/DX2                !
 ! D45   D(3,7,13,20)         -129.9127         estimate D2E/DX2                !
 ! D46   D(3,7,13,23)          -16.0013         estimate D2E/DX2                !
 ! D47   D(4,7,13,14)          129.7768         estimate D2E/DX2                !
 ! D48   D(4,7,13,20)         -103.0377         estimate D2E/DX2                !
 ! D49   D(4,7,13,23)           10.8737         estimate D2E/DX2                !
 ! D50   D(17,7,13,14)         -12.1157         estimate D2E/DX2                !
 ! D51   D(17,7,13,20)         115.0699         estimate D2E/DX2                !
 ! D52   D(17,7,13,23)        -131.0187         estimate D2E/DX2                !
 ! D53   D(1,7,17,15)         -139.2187         estimate D2E/DX2                !
 ! D54   D(3,7,17,15)          -75.228          estimate D2E/DX2                !
 ! D55   D(4,7,17,15)          -49.1045         estimate D2E/DX2                !
 ! D56   D(13,7,17,15)          37.3793         estimate D2E/DX2                !
 ! D57   D(7,13,14,15)         -12.4872         estimate D2E/DX2                !
 ! D58   D(7,13,14,21)         103.6321         estimate D2E/DX2                !
 ! D59   D(7,13,14,22)        -135.458          estimate D2E/DX2                !
 ! D60   D(20,13,14,15)       -141.4617         estimate D2E/DX2                !
 ! D61   D(20,13,14,21)        -25.3425         estimate D2E/DX2                !
 ! D62   D(20,13,14,22)         95.5675         estimate D2E/DX2                !
 ! D63   D(23,13,14,15)         99.7754         estimate D2E/DX2                !
 ! D64   D(23,13,14,21)       -144.1053         estimate D2E/DX2                !
 ! D65   D(23,13,14,22)        -23.1954         estimate D2E/DX2                !
 ! D66   D(13,14,15,16)        162.2686         estimate D2E/DX2                !
 ! D67   D(13,14,15,17)         40.8892         estimate D2E/DX2                !
 ! D68   D(13,14,15,18)        -83.3744         estimate D2E/DX2                !
 ! D69   D(21,14,15,16)         44.7823         estimate D2E/DX2                !
 ! D70   D(21,14,15,17)        -76.5971         estimate D2E/DX2                !
 ! D71   D(21,14,15,18)        159.1393         estimate D2E/DX2                !
 ! D72   D(22,14,15,16)        -74.8553         estimate D2E/DX2                !
 ! D73   D(22,14,15,17)        163.7653         estimate D2E/DX2                !
 ! D74   D(22,14,15,18)         39.5017         estimate D2E/DX2                !
 ! D75   D(14,15,16,24)        149.2168         estimate D2E/DX2                !
 ! D76   D(17,15,16,24)        -96.8544         estimate D2E/DX2                !
 ! D77   D(18,15,16,24)         31.5653         estimate D2E/DX2                !
 ! D78   D(14,15,17,7)         -48.9775         estimate D2E/DX2                !
 ! D79   D(16,15,17,7)        -162.5216         estimate D2E/DX2                !
 ! D80   D(18,15,17,7)          73.1423         estimate D2E/DX2                !
 ! D81   D(14,15,18,19)         88.6447         estimate D2E/DX2                !
 ! D82   D(16,15,18,19)       -158.645          estimate D2E/DX2                !
 ! D83   D(17,15,18,19)        -29.784          estimate D2E/DX2                !
 --------------------------------------------------------------------------------
 Trust Radius=3.00D-01 FncErr=1.00D-07 GrdErr=1.00D-06 EigMax=2.50D+02 EigMin=1.00D-04
 Number of steps in this run=    144 maximum allowed number of steps=    144.
 GradGradGradGradGradGradGradGradGradGradGradGradGradGradGradGradGradGrad

                          Input orientation:                          
 ---------------------------------------------------------------------
 Center     Atomic      Atomic             Coordinates (Angstroms)
 Number     Number       Type             X           Y           Z
 ---------------------------------------------------------------------
      1          7           0       -1.126051    1.872750    0.703898
      2          6           0       -2.309619    1.655761   -0.193653
      3         15           0       -2.017357    0.006251   -0.951048
      4          8           0       -1.704621   -0.850108    0.318703
      5          8           0       -0.904037    0.074255   -1.979782
      6          8           0       -3.425160   -0.438080   -1.570659
      7         29           0       -0.165716    0.112834    1.021126
      8          1           0       -3.375009   -0.738268   -2.495549
      9          1           0       -1.397753    2.368567    1.553886
     10          1           0       -3.217629    1.614305    0.411520
     11          1           0       -2.401156    2.456276   -0.931342
     12          1           0       -0.416154    2.443820    0.241315
     13          7           0        0.795100   -1.675499    1.218395
     14          6           0        2.159155   -1.653109    0.609664
     15         15           0        2.254013   -0.125308   -0.397922
     16          8           0        3.810895    0.090165   -0.621182
     17          8           0        1.559027    0.943593    0.453428
     18          8           0        1.622917   -0.340378   -1.819447
     19          1           0        0.608666   -0.162994   -1.925501
     20          1           0        0.830526   -2.028309    2.175599
     21          1           0        2.912097   -1.576025    1.398171
     22          1           0        2.358700   -2.550188    0.018287
     23          1           0        0.161487   -2.290460    0.702578
     24          1           0        4.073942    0.523090   -1.453960
 ---------------------------------------------------------------------
                    Distance matrix (angstroms):
                    1          2          3          4          5
     1  N    0.000000
     2  C    1.501171   0.000000
     3  P    2.648979   1.838463   0.000000
     4  O    2.810174   2.628290   1.563145   0.000000
     5  O    3.238212   2.768949   1.517366   2.603539   0.000000
     6  O    3.974852   2.743128   1.601018   2.588381   2.604982
     7  Cu   2.029822   2.907340   2.707287   1.946506   3.090640
     8  H    4.702307   3.487859   2.187010   3.274556   2.651775
     9  H    1.020850   2.096063   3.498448   3.461172   4.241984
    10  H    2.127670   1.091987   2.425507   2.893292   3.666441
    11  H    2.154160   1.092423   2.479982   3.602770   3.002435
    12  H    1.021791   2.096530   3.150765   3.537810   3.284226
    13  N    4.067628   4.767646   3.929972   2.781964   4.022069
    14  C    4.820077   5.618174   4.757368   3.957049   4.367169
    15  P    4.078122   4.903129   4.309044   4.087747   3.537710
    16  O    5.413582   6.332026   5.838182   5.673483   4.906794
    17  O    2.852316   3.986516   3.954957   3.726515   3.569726
    18  O    4.338436   4.700278   3.758438   3.987984   2.565760
    19  H    3.750631   3.850137   2.806100   3.295432   1.532156
    20  H    4.605688   5.389456   4.693164   3.356067   4.969575
    21  H    5.355623   6.343867   5.685239   4.796487   5.356945
    22  H    5.672384   6.287140   5.159929   4.414873   4.639551
    23  H    4.357760   4.741545   3.571655   2.388374   3.731256
    24  H    5.789461   6.604632   6.133838   6.198371   5.025755
                    6          7          8          9         10
     6  O    0.000000
     7  Cu   4.200576   0.000000
     8  H    0.973678   4.836418   0.000000
     9  H    4.663735   2.624895   5.473562   0.000000
    10  H    2.860837   3.455460   3.743050   2.277248   0.000000
    11  H    3.136018   3.781672   3.687851   2.681579   1.782925
    12  H    4.543425   2.470692   5.135263   1.640745   2.926657
    13  N    5.207747   2.039662   5.662296   4.612551   5.251272
    14  C    6.116754   2.948370   6.411416   5.451333   6.294844
    15  P    5.807422   2.815227   6.038349   4.833670   5.798303
    16  O    7.317174   4.302456   7.472400   6.087039   7.265646
    17  O    5.554104   1.996792   5.989143   3.461806   4.823697
    18  O    5.055148   3.387250   5.059120   5.276571   5.677049
    19  H    4.058736   3.059144   4.065164   4.747699   4.822965
    20  H    5.888475   2.628650   6.416412   4.968327   5.724349
    21  H    7.090113   3.530912   7.442485   5.844558   6.980346
    22  H    6.359150   3.803953   6.517503   6.376767   6.970874
    23  H    4.632813   2.446295   5.014391   4.986229   5.172072
    24  H    7.561349   4.926365   7.626454   6.510943   7.605115
                   11         12         13         14         15
    11  H    0.000000
    12  H    2.305539   0.000000
    13  N    5.648804   4.403477   0.000000
    14  C    6.329153   4.853115   1.493887   0.000000
    15  P    5.349740   3.760165   2.672826   1.832595   0.000000
    16  O    6.654641   4.914421   3.949256   2.698561   1.587499
    17  O    4.459691   2.489380   2.833443   2.669724   1.533087
    18  O    4.980278   4.019491   3.419987   2.812720   1.570118
    19  H    4.111928   3.541303   3.493782   3.324383   2.245459
    20  H    6.341006   5.029474   1.020769   2.087626   3.502961
    21  H    7.065178   5.345533   2.126944   1.092980   2.400750
    22  H    6.972999   5.717489   2.156429   1.092839   2.462566
    23  H    5.636340   4.791643   1.022600   2.098935   3.205877
    24  H    6.777701   5.169539   4.767188   3.558202   2.201767
                   16         17         18         19         20
    16  O    0.000000
    17  O    2.637051   0.000000
    18  O    2.531492   2.611250   0.000000
    19  H    3.466931   2.790524   1.035093   0.000000
    20  H    4.603533   3.511238   4.408785   4.510836   0.000000
    21  H    2.767997   3.011945   3.679928   4.283602   2.267575
    22  H    3.080463   3.610448   2.966800   3.541134   2.694749
    23  H    4.553888   3.531897   3.507023   3.410701   1.638940
    24  H    0.974750   3.184298   2.624249   3.563874   5.495733
                   21         22         23         24
    21  H    0.000000
    22  H    1.777448   0.000000
    23  H    2.925769   2.315915   0.000000
    24  H    3.727039   3.815050   5.279586   0.000000
 Stoichiometry    C2H11CuN2O6P2(1+,2)
 Framework group  C1[X(C2H11CuN2O6P2)]
 Deg. of freedom    66
 Full point group                 C1      NOp   1
 Largest Abelian subgroup         C1      NOp   1
 Largest concise Abelian subgroup C1      NOp   1
                         Standard orientation:                         
 ---------------------------------------------------------------------
 Center     Atomic      Atomic             Coordinates (Angstroms)
 Number     Number       Type             X           Y           Z
 ---------------------------------------------------------------------
      1          7           0        1.311859   -1.110813   -1.605404
      2          6           0        2.543566   -0.315154   -1.283941
      3         15           0        2.100915    0.627438    0.231159
      4          8           0        1.528446   -0.514415    1.132200
      5          8           0        1.130221    1.747388   -0.094209
      6          8           0        3.489298    1.148740    0.834396
      7         29           0        0.077212   -1.156638    0.005101
      8          1           0        3.498984    2.099401    1.044634
      9          1           0        1.556682   -2.028259   -1.980226
     10          1           0        3.363210   -0.998384   -1.051961
     11          1           0        2.831467    0.326811   -2.119634
     12          1           0        0.748015   -0.640722   -2.316143
     13          7           0       -1.148732   -1.080791    1.633452
     14          6           0       -2.419127   -0.347912    1.349400
     15         15           0       -2.179071    0.507008   -0.253687
     16          8           0       -3.653778    0.857637   -0.725333
     17          8           0       -1.435100   -0.509884   -1.127066
     18          8           0       -1.432181    1.874945   -0.063484
     19          1           0       -0.397489    1.863951   -0.090102
     20          1           0       -1.340859   -1.990149    2.055499
     21          1           0       -3.235650   -1.063420    1.223132
     22          1           0       -2.679881    0.346379    2.152060
     23          1           0       -0.557785   -0.570210    2.293602
     24          1           0       -3.757281    1.664748   -1.261986
 ---------------------------------------------------------------------
 Rotational constants (GHZ):           0.9696935           0.3922788           0.3649122
 Standard basis: def2TZVP (5D, 7F)
 There are   562 symmetry adapted cartesian basis functions of A   symmetry.
 There are   495 symmetry adapted basis functions of A   symmetry.
   495 basis functions,   838 primitive gaussians,   562 cartesian basis functions
    72 alpha electrons       71 beta electrons
       nuclear repulsion energy      1733.7587634821 Hartrees.
 NAtoms=   24 NActive=   24 NUniq=   24 SFac= 1.00D+00 NAtFMM=   60 NAOKFM=F Big=F
 Integral buffers will be    131072 words long.
 Raffenetti 2 integral format.
 Two-electron integral symmetry is turned on.
 Nuclear repulsion after empirical dispersion term =     1733.7544450696 Hartrees.
 One-electron integrals computed using PRISM.
   1 Symmetry operations used in ECPInt.
 ECPInt:  NShTT=   19110 NPrTT=   63930 LenC2=   17631 LenP2D=   41972.
 LDataN:  DoStor=T MaxTD1= 6 Len=  172
 NBasis=   495 RedAO= T EigKep=  4.50D-04  NBF=   495
 NBsUse=   495 1.00D-06 EigRej= -1.00D+00 NBFU=   495
 ExpMin= 3.88D-02 ExpMax= 3.78D+05 ExpMxC= 3.65D+03 IAcc=3 IRadAn=         5 AccDes= 0.00D+00
 Harris functional with IExCor= 1009 and IRadAn=       5 diagonalized for initial guess.
 HarFok:  IExCor= 1009 AccDes= 0.00D+00 IRadAn=         5 IDoV= 1 UseB2=F ITyADJ=14
 ICtDFT=  3500011 ScaDFX=  1.000000  1.000000  1.000000  1.000000
 FoFCou: FMM=F IPFlag=           0 FMFlag=      100000 FMFlg1=           0
         NFxFlg=           0 DoJE=T BraDBF=F KetDBF=T FulRan=T
         wScrn=  0.000000 ICntrl=       500 IOpCl=  0 I1Cent=   200000004 NGrid=           0
         NMat0=    1 NMatS0=      1 NMatT0=    0 NMatD0=    1 NMtDS0=    0 NMtDT0=    0
 Petite list used in FoFCou.
 Initial guess <Sx>= 0.0000 <Sy>= 0.0000 <Sz>= 0.5000 <S**2>= 0.7500 S= 0.5000
 Requested convergence on RMS density matrix=1.00D-08 within  32 cycles.
 Requested convergence on MAX density matrix=1.00D-06.
 Requested convergence on             energy=1.00D-06.
 No special actions if energy rises.
 SCF Done:  E(UM06) =  -2966.87600128     A.U. after   19 cycles
            NFock= 19  Conv=0.60D-08     -V/T= 2.0022
 <Sx>= 0.0000 <Sy>= 0.0000 <Sz>= 0.5000 <S**2>= 0.7527 S= 0.5014
 <L.S>= 0.000000000000E+00
 Annihilation of the first spin contaminant:
 S**2 before annihilation     0.7527,   after     0.7500
 QCSCF skips out because SCF is already converged.

 **********************************************************************

            Population analysis using the SCF Density.

 **********************************************************************

 Orbital symmetries:
 Alpha Orbitals:
       Occupied  (A) (A) (A) (A) (A) (A) (A) (A) (A) (A) (A) (A)
                 (A) (A) (A) (A) (A) (A) (A) (A) (A) (A) (A) (A)
                 (A) (A) (A) (A) (A) (A) (A) (A) (A) (A) (A) (A)
                 (A) (A) (A) (A) (A) (A) (A) (A) (A) (A) (A) (A)
                 (A) (A) (A) (A) (A) (A) (A) (A) (A) (A) (A) (A)
                 (A) (A) (A) (A) (A) (A) (A) (A) (A) (A) (A) (A)
       Virtual   (A) (A) (A) (A) (A) (A) (A) (A) (A) (A) (A) (A)
                 (A) (A) (A) (A) (A) (A) (A) (A) (A) (A) (A) (A)
                 (A) (A) (A) (A) (A) (A) (A) (A) (A) (A) (A) (A)
                 (A) (A) (A) (A) (A) (A) (A) (A) (A) (A) (A) (A)
                 (A) (A) (A) (A) (A) (A) (A) (A) (A) (A) (A) (A)
                 (A) (A) (A) (A) (A) (A) (A) (A) (A) (A) (A) (A)
                 (A) (A) (A) (A) (A) (A) (A) (A) (A) (A) (A) (A)
                 (A) (A) (A) (A) (A) (A) (A) (A) (A) (A) (A) (A)
                 (A) (A) (A) (A) (A) (A) (A) (A) (A) (A) (A) (A)
                 (A) (A) (A) (A) (A) (A) (A) (A) (A) (A) (A) (A)
                 (A) (A) (A) (A) (A) (A) (A) (A) (A) (A) (A) (A)
                 (A) (A) (A) (A) (A) (A) (A) (A) (A) (A) (A) (A)
                 (A) (A) (A) (A) (A) (A) (A) (A) (A) (A) (A) (A)
                 (A) (A) (A) (A) (A) (A) (A) (A) (A) (A) (A) (A)
                 (A) (A) (A) (A) (A) (A) (A) (A) (A) (A) (A) (A)
                 (A) (A) (A) (A) (A) (A) (A) (A) (A) (A) (A) (A)
                 (A) (A) (A) (A) (A) (A) (A) (A) (A) (A) (A) (A)
                 (A) (A) (A) (A) (A) (A) (A) (A) (A) (A) (A) (A)
                 (A) (A) (A) (A) (A) (A) (A) (A) (A) (A) (A) (A)
                 (A) (A) (A) (A) (A) (A) (A) (A) (A) (A) (A) (A)
                 (A) (A) (A) (A) (A) (A) (A) (A) (A) (A) (A) (A)
                 (A) (A) (A) (A) (A) (A) (A) (A) (A) (A) (A) (A)
                 (A) (A) (A) (A) (A) (A) (A) (A) (A) (A) (A) (A)
                 (A) (A) (A) (A) (A) (A) (A) (A) (A) (A) (A) (A)
                 (A) (A) (A) (A) (A) (A) (A) (A) (A) (A) (A) (A)
                 (A) (A) (A) (A) (A) (A) (A) (A) (A) (A) (A) (A)
                 (A) (A) (A) (A) (A) (A) (A) (A) (A) (A) (A) (A)
                 (A) (A) (A) (A) (A) (A) (A) (A) (A) (A) (A) (A)
                 (A) (A) (A) (A) (A) (A) (A) (A) (A) (A) (A) (A)
                 (A) (A) (A) (A) (A) (A) (A) (A) (A) (A) (A) (A)
                 (A) (A) (A) (A) (A) (A) (A) (A) (A) (A) (A) (A)
                 (A) (A) (A) (A) (A) (A) (A) (A) (A) (A) (A) (A)
                 (A) (A) (A) (A) (A) (A) (A) (A) (A) (A) (A) (A)
                 (A) (A) (A) (A) (A) (A) (A) (A) (A) (A) (A) (A)
                 (A) (A) (A) (A) (A) (A) (A) (A) (A) (A) (A) (A)
                 (A) (A) (A)
 Beta  Orbitals:
       Occupied  (A) (A) (A) (A) (A) (A) (A) (A) (A) (A) (A) (A)
                 (A) (A) (A) (A) (A) (A) (A) (A) (A) (A) (A) (A)
                 (A) (A) (A) (A) (A) (A) (A) (A) (A) (A) (A) (A)
                 (A) (A) (A) (A) (A) (A) (A) (A) (A) (A) (A) (A)
                 (A) (A) (A) (A) (A) (A) (A) (A) (A) (A) (A) (A)
                 (A) (A) (A) (A) (A) (A) (A) (A) (A) (A) (A)
       Virtual   (A) (A) (A) (A) (A) (A) (A) (A) (A) (A) (A) (A)
                 (A) (A) (A) (A) (A) (A) (A) (A) (A) (A) (A) (A)
                 (A) (A) (A) (A) (A) (A) (A) (A) (A) (A) (A) (A)
                 (A) (A) (A) (A) (A) (A) (A) (A) (A) (A) (A) (A)
                 (A) (A) (A) (A) (A) (A) (A) (A) (A) (A) (A) (A)
                 (A) (A) (A) (A) (A) (A) (A) (A) (A) (A) (A) (A)
                 (A) (A) (A) (A) (A) (A) (A) (A) (A) (A) (A) (A)
                 (A) (A) (A) (A) (A) (A) (A) (A) (A) (A) (A) (A)
                 (A) (A) (A) (A) (A) (A) (A) (A) (A) (A) (A) (A)
                 (A) (A) (A) (A) (A) (A) (A) (A) (A) (A) (A) (A)
                 (A) (A) (A) (A) (A) (A) (A) (A) (A) (A) (A) (A)
                 (A) (A) (A) (A) (A) (A) (A) (A) (A) (A) (A) (A)
                 (A) (A) (A) (A) (A) (A) (A) (A) (A) (A) (A) (A)
                 (A) (A) (A) (A) (A) (A) (A) (A) (A) (A) (A) (A)
                 (A) (A) (A) (A) (A) (A) (A) (A) (A) (A) (A) (A)
                 (A) (A) (A) (A) (A) (A) (A) (A) (A) (A) (A) (A)
                 (A) (A) (A) (A) (A) (A) (A) (A) (A) (A) (A) (A)
                 (A) (A) (A) (A) (A) (A) (A) (A) (A) (A) (A) (A)
                 (A) (A) (A) (A) (A) (A) (A) (A) (A) (A) (A) (A)
                 (A) (A) (A) (A) (A) (A) (A) (A) (A) (A) (A) (A)
                 (A) (A) (A) (A) (A) (A) (A) (A) (A) (A) (A) (A)
                 (A) (A) (A) (A) (A) (A) (A) (A) (A) (A) (A) (A)
                 (A) (A) (A) (A) (A) (A) (A) (A) (A) (A) (A) (A)
                 (A) (A) (A) (A) (A) (A) (A) (A) (A) (A) (A) (A)
                 (A) (A) (A) (A) (A) (A) (A) (A) (A) (A) (A) (A)
                 (A) (A) (A) (A) (A) (A) (A) (A) (A) (A) (A) (A)
                 (A) (A) (A) (A) (A) (A) (A) (A) (A) (A) (A) (A)
                 (A) (A) (A) (A) (A) (A) (A) (A) (A) (A) (A) (A)
                 (A) (A) (A) (A) (A) (A) (A) (A) (A) (A) (A) (A)
                 (A) (A) (A) (A) (A) (A) (A) (A) (A) (A) (A) (A)
                 (A) (A) (A) (A) (A) (A) (A) (A) (A) (A) (A) (A)
                 (A) (A) (A) (A) (A) (A) (A) (A) (A) (A) (A) (A)
                 (A) (A) (A) (A) (A) (A) (A) (A) (A) (A) (A) (A)
                 (A) (A) (A) (A) (A) (A) (A) (A) (A) (A) (A) (A)
                 (A) (A) (A) (A) (A) (A) (A) (A) (A) (A) (A) (A)
                 (A) (A) (A) (A)
 The electronic state is 2-A.
 Alpha  occ. eigenvalues -- -323.54907 -77.50645 -77.46697 -39.32886 -34.45125
 Alpha  occ. eigenvalues --  -34.44470 -34.42587 -19.40028 -19.37349 -19.37094
 Alpha  occ. eigenvalues --  -19.35734 -19.33656 -19.31039 -14.60492 -14.59816
 Alpha  occ. eigenvalues --  -10.44760 -10.42519  -6.91062  -6.87130  -5.03142
 Alpha  occ. eigenvalues --   -5.02963  -5.02904  -4.99207  -4.99049  -4.98957
 Alpha  occ. eigenvalues --   -4.68553  -3.15862  -3.14686  -3.11326  -1.25557
 Alpha  occ. eigenvalues --   -1.21884  -1.20027  -1.16614  -1.15584  -1.11502
 Alpha  occ. eigenvalues --   -1.10677  -1.09619  -0.88829  -0.86261  -0.78882
 Alpha  occ. eigenvalues --   -0.75053  -0.72709  -0.71304  -0.70760  -0.68825
 Alpha  occ. eigenvalues --   -0.66818  -0.65232  -0.64109  -0.63273  -0.62533
 Alpha  occ. eigenvalues --   -0.61210  -0.60908  -0.58730  -0.58383  -0.57908
 Alpha  occ. eigenvalues --   -0.57318  -0.56734  -0.56402  -0.56260  -0.54851
 Alpha  occ. eigenvalues --   -0.54136  -0.53406  -0.51813  -0.51693  -0.50349
 Alpha  occ. eigenvalues --   -0.49562  -0.48702  -0.47883  -0.46582  -0.45511
 Alpha  occ. eigenvalues --   -0.44141  -0.43032
 Alpha virt. eigenvalues --   -0.17155  -0.12713  -0.11000  -0.10744  -0.08891
 Alpha virt. eigenvalues --   -0.08541  -0.07669  -0.07129  -0.06193  -0.05015
 Alpha virt. eigenvalues --   -0.03934  -0.03836  -0.03213  -0.02682  -0.02477
 Alpha virt. eigenvalues --   -0.01557  -0.00942  -0.00186   0.00219   0.00461
 Alpha virt. eigenvalues --    0.01298   0.02988   0.03257   0.04317   0.06870
 Alpha virt. eigenvalues --    0.07858   0.08369   0.09370   0.09887   0.10980
 Alpha virt. eigenvalues --    0.12395   0.12962   0.13506   0.14041   0.14426
 Alpha virt. eigenvalues --    0.15729   0.17072   0.17444   0.18273   0.19083
 Alpha virt. eigenvalues --    0.19635   0.19779   0.20876   0.22061   0.23076
 Alpha virt. eigenvalues --    0.23502   0.23717   0.24655   0.25673   0.26030
 Alpha virt. eigenvalues --    0.26392   0.26963   0.27483   0.27945   0.28685
 Alpha virt. eigenvalues --    0.29955   0.31059   0.32084   0.32699   0.33544
 Alpha virt. eigenvalues --    0.34158   0.35054   0.35191   0.35630   0.36206
 Alpha virt. eigenvalues --    0.37246   0.37784   0.38860   0.40441   0.41865
 Alpha virt. eigenvalues --    0.43201   0.43796   0.44107   0.44793   0.46137
 Alpha virt. eigenvalues --    0.47411   0.48582   0.49030   0.49741   0.50239
 Alpha virt. eigenvalues --    0.52102   0.52930   0.55546   0.55786   0.56984
 Alpha virt. eigenvalues --    0.57878   0.58482   0.59460   0.60454   0.61980
 Alpha virt. eigenvalues --    0.62927   0.65590   0.65832   0.67545   0.68535
 Alpha virt. eigenvalues --    0.69461   0.70715   0.71615   0.72957   0.73517
 Alpha virt. eigenvalues --    0.76140   0.76716   0.78392   0.79221   0.81168
 Alpha virt. eigenvalues --    0.82007   0.84688   0.85762   0.86162   0.88399
 Alpha virt. eigenvalues --    0.90375   0.91204   0.92924   0.94289   0.97401
 Alpha virt. eigenvalues --    1.00470   1.02141   1.03375   1.05696   1.07413
 Alpha virt. eigenvalues --    1.09134   1.10303   1.11122   1.12686   1.14346
 Alpha virt. eigenvalues --    1.15328   1.15826   1.17381   1.18247   1.19510
 Alpha virt. eigenvalues --    1.20952   1.22933   1.23771   1.23979   1.24935
 Alpha virt. eigenvalues --    1.25282   1.26920   1.28578   1.29291   1.29779
 Alpha virt. eigenvalues --    1.30925   1.31979   1.33283   1.34403   1.34974
 Alpha virt. eigenvalues --    1.35721   1.36885   1.38818   1.41868   1.42045
 Alpha virt. eigenvalues --    1.43410   1.46082   1.46593   1.48429   1.50770
 Alpha virt. eigenvalues --    1.52587   1.53914   1.55457   1.55928   1.57845
 Alpha virt. eigenvalues --    1.58654   1.60746   1.61860   1.63209   1.63527
 Alpha virt. eigenvalues --    1.67386   1.67574   1.69559   1.70489   1.71563
 Alpha virt. eigenvalues --    1.72749   1.73335   1.73988   1.74613   1.76152
 Alpha virt. eigenvalues --    1.78564   1.78840   1.79513   1.80956   1.81681
 Alpha virt. eigenvalues --    1.82128   1.83190   1.84464   1.85674   1.86230
 Alpha virt. eigenvalues --    1.88034   1.89542   1.90266   1.91933   1.92748
 Alpha virt. eigenvalues --    1.93385   1.96548   1.98529   1.99744   2.01392
 Alpha virt. eigenvalues --    2.02157   2.03473   2.03993   2.06106   2.06668
 Alpha virt. eigenvalues --    2.07722   2.08780   2.09204   2.10749   2.11995
 Alpha virt. eigenvalues --    2.13524   2.15058   2.16013   2.17100   2.17911
 Alpha virt. eigenvalues --    2.18437   2.20293   2.21788   2.23280   2.23558
 Alpha virt. eigenvalues --    2.27293   2.28152   2.28657   2.31168   2.31635
 Alpha virt. eigenvalues --    2.33278   2.34640   2.36008   2.38359   2.40508
 Alpha virt. eigenvalues --    2.41063   2.42349   2.44059   2.45169   2.47608
 Alpha virt. eigenvalues --    2.48825   2.50144   2.50663   2.53489   2.53881
 Alpha virt. eigenvalues --    2.55370   2.57792   2.59423   2.61076   2.62860
 Alpha virt. eigenvalues --    2.65538   2.70779   2.72352   2.74474   2.75083
 Alpha virt. eigenvalues --    2.79293   2.80707   2.81370   2.83476   2.86247
 Alpha virt. eigenvalues --    2.87235   2.88013   2.88750   2.90183   2.91778
 Alpha virt. eigenvalues --    2.92863   2.94814   2.97515   2.99199   2.99928
 Alpha virt. eigenvalues --    3.02199   3.02721   3.03568   3.03920   3.08954
 Alpha virt. eigenvalues --    3.12011   3.12976   3.13978   3.14890   3.15574
 Alpha virt. eigenvalues --    3.17363   3.20625   3.22021   3.24095   3.27851
 Alpha virt. eigenvalues --    3.31245   3.33678   3.35827   3.37198   3.38792
 Alpha virt. eigenvalues --    3.42419   3.50567   3.53975   3.59968   3.61604
 Alpha virt. eigenvalues --    3.62807   3.64044   3.66749   3.71201   3.71964
 Alpha virt. eigenvalues --    3.73685   3.76686   3.77364   3.80911   3.82731
 Alpha virt. eigenvalues --    3.84377   3.88463   3.89395   3.92355   3.95549
 Alpha virt. eigenvalues --    4.00530   4.10892   4.11712   4.14102   4.14788
 Alpha virt. eigenvalues --    4.28766   4.46066   4.47498   4.51896   4.52508
 Alpha virt. eigenvalues --    4.66825   4.68329   4.73906   4.76214   4.81010
 Alpha virt. eigenvalues --    4.82995   4.83833   4.88662   4.89954   4.96020
 Alpha virt. eigenvalues --    4.96856   4.97628   4.98371   4.99434   5.00570
 Alpha virt. eigenvalues --    5.00802   5.01494   5.02722   5.03534   5.04657
 Alpha virt. eigenvalues --    5.05020   5.05248   5.06044   5.07403   5.07529
 Alpha virt. eigenvalues --    5.09667   5.10400   5.10495   5.12745   5.13383
 Alpha virt. eigenvalues --    5.14388   5.14746   5.15390   5.16073   5.17516
 Alpha virt. eigenvalues --    5.18252   5.18951   5.19616   5.21779   5.23945
 Alpha virt. eigenvalues --    5.25480   5.27935   5.28962   5.31404   5.33662
 Alpha virt. eigenvalues --    5.36735   5.37637   5.39444   5.40400   5.40873
 Alpha virt. eigenvalues --    5.44704   5.46159   5.50354   5.51483   5.56054
 Alpha virt. eigenvalues --    5.56368   5.57651   5.58350   5.59272   5.59520
 Alpha virt. eigenvalues --    5.61676   5.72550   6.01931   6.03575   6.13876
 Alpha virt. eigenvalues --    6.26073   6.29007   6.30562   6.33932   6.34330
 Alpha virt. eigenvalues --    6.36629   6.43856   6.44991   6.47281   6.47714
 Alpha virt. eigenvalues --    6.51047   6.52305   6.54297   6.57146   6.58939
 Alpha virt. eigenvalues --    6.64624   6.66930   6.67540   6.67947   6.68940
 Alpha virt. eigenvalues --    6.71168   6.75222   6.76396   6.79124   6.81968
 Alpha virt. eigenvalues --    6.83889   6.86544   6.91305   7.00032   7.15993
 Alpha virt. eigenvalues --    7.66717   7.69455   7.90051   7.99031   8.06768
 Alpha virt. eigenvalues --    8.09455  16.60295  16.70353  22.07843  22.10270
 Alpha virt. eigenvalues --   31.73960  31.80636  43.42160  43.43592  43.51560
 Alpha virt. eigenvalues --   43.54055  43.58414  43.69103
  Beta  occ. eigenvalues -- -323.54877 -77.50641 -77.46695 -39.31466 -34.43271
  Beta  occ. eigenvalues --  -34.42819 -34.41983 -19.40020 -19.37345 -19.37078
  Beta  occ. eigenvalues --  -19.35584 -19.33393 -19.31031 -14.60275 -14.59575
  Beta  occ. eigenvalues --  -10.44768 -10.42529  -6.91058  -6.87129  -5.03137
  Beta  occ. eigenvalues --   -5.02961  -5.02892  -4.99203  -4.99043  -4.98956
  Beta  occ. eigenvalues --   -4.63427  -3.09332  -3.08695  -3.08603  -1.25497
  Beta  occ. eigenvalues --   -1.21758  -1.19981  -1.16265  -1.15105  -1.11203
  Beta  occ. eigenvalues --   -1.10244  -1.09104  -0.88730  -0.86137  -0.78777
  Beta  occ. eigenvalues --   -0.74879  -0.72633  -0.71086  -0.70476  -0.68014
  Beta  occ. eigenvalues --   -0.66354  -0.64437  -0.63787  -0.62482  -0.60867
  Beta  occ. eigenvalues --   -0.60563  -0.58446  -0.57779  -0.57228  -0.56692
  Beta  occ. eigenvalues --   -0.56297  -0.54908  -0.54554  -0.54267  -0.53849
  Beta  occ. eigenvalues --   -0.53399  -0.52373  -0.51052  -0.50855  -0.49930
  Beta  occ. eigenvalues --   -0.48796  -0.47978  -0.47377  -0.46020  -0.44672
  Beta  occ. eigenvalues --   -0.43643
  Beta virt. eigenvalues --   -0.28525  -0.16902  -0.12673  -0.10954  -0.10684
  Beta virt. eigenvalues --   -0.08843  -0.08519  -0.07568  -0.07032  -0.06128
  Beta virt. eigenvalues --   -0.04969  -0.03841  -0.03699  -0.03144  -0.02625
  Beta virt. eigenvalues --   -0.02406  -0.01539  -0.00859  -0.00111   0.00346
  Beta virt. eigenvalues --    0.00583   0.01389   0.03140   0.03295   0.04364
  Beta virt. eigenvalues --    0.06964   0.07951   0.08408   0.09445   0.09914
  Beta virt. eigenvalues --    0.11036   0.12419   0.13034   0.13492   0.14071
  Beta virt. eigenvalues --    0.14446   0.15748   0.17119   0.17591   0.18334
  Beta virt. eigenvalues --    0.19216   0.19717   0.19812   0.20919   0.22153
  Beta virt. eigenvalues --    0.23132   0.23534   0.23772   0.24711   0.25731
  Beta virt. eigenvalues --    0.26107   0.26556   0.27041   0.27525   0.28006
  Beta virt. eigenvalues --    0.28747   0.29984   0.31111   0.32161   0.32803
  Beta virt. eigenvalues --    0.33631   0.34225   0.35104   0.35237   0.35732
  Beta virt. eigenvalues --    0.36271   0.37340   0.37865   0.38928   0.40481
  Beta virt. eigenvalues --    0.41895   0.43241   0.43836   0.44154   0.44822
  Beta virt. eigenvalues --    0.46220   0.47452   0.48595   0.49053   0.49758
  Beta virt. eigenvalues --    0.50277   0.52146   0.52954   0.55602   0.55831
  Beta virt. eigenvalues --    0.57033   0.57905   0.58536   0.59517   0.60506
  Beta virt. eigenvalues --    0.62027   0.63003   0.65621   0.65868   0.67577
  Beta virt. eigenvalues --    0.68572   0.69501   0.70761   0.71653   0.72963
  Beta virt. eigenvalues --    0.73553   0.76156   0.76801   0.78483   0.79349
  Beta virt. eigenvalues --    0.81255   0.82022   0.84749   0.85845   0.86236
  Beta virt. eigenvalues --    0.88539   0.90439   0.91296   0.93007   0.94695
  Beta virt. eigenvalues --    0.98605   1.00532   1.02218   1.03419   1.05740
  Beta virt. eigenvalues --    1.07455   1.09165   1.10343   1.11144   1.12700
  Beta virt. eigenvalues --    1.14386   1.15368   1.15911   1.17442   1.18318
  Beta virt. eigenvalues --    1.19594   1.20989   1.23001   1.23839   1.24030
  Beta virt. eigenvalues --    1.25002   1.25344   1.26971   1.28609   1.29357
  Beta virt. eigenvalues --    1.29898   1.30991   1.31998   1.33347   1.34412
  Beta virt. eigenvalues --    1.34997   1.35745   1.36920   1.38894   1.41904
  Beta virt. eigenvalues --    1.42068   1.43504   1.46091   1.46614   1.48545
  Beta virt. eigenvalues --    1.50774   1.52685   1.53988   1.55490   1.55879
  Beta virt. eigenvalues --    1.57730   1.58686   1.60806   1.61863   1.63212
  Beta virt. eigenvalues --    1.63529   1.67428   1.67574   1.69569   1.70494
  Beta virt. eigenvalues --    1.71571   1.72806   1.73331   1.73991   1.74624
  Beta virt. eigenvalues --    1.76181   1.78572   1.78865   1.79507   1.80980
  Beta virt. eigenvalues --    1.81710   1.82147   1.83200   1.84468   1.85672
  Beta virt. eigenvalues --    1.86248   1.88008   1.89562   1.90295   1.91923
  Beta virt. eigenvalues --    1.92759   1.93384   1.96671   1.98558   1.99769
  Beta virt. eigenvalues --    2.01457   2.02220   2.03482   2.04016   2.06125
  Beta virt. eigenvalues --    2.06735   2.07748   2.08854   2.09310   2.10760
  Beta virt. eigenvalues --    2.12063   2.13581   2.15099   2.16070   2.17093
  Beta virt. eigenvalues --    2.17942   2.18500   2.20376   2.21866   2.23314
  Beta virt. eigenvalues --    2.23608   2.27339   2.28245   2.28627   2.31297
  Beta virt. eigenvalues --    2.31708   2.33381   2.34698   2.36049   2.38426
  Beta virt. eigenvalues --    2.40747   2.41303   2.42405   2.44242   2.45275
  Beta virt. eigenvalues --    2.47732   2.48919   2.50225   2.50740   2.53568
  Beta virt. eigenvalues --    2.53977   2.55415   2.57957   2.59539   2.61603
  Beta virt. eigenvalues --    2.62912   2.65848   2.70895   2.72414   2.74543
  Beta virt. eigenvalues --    2.75171   2.79390   2.80987   2.81512   2.83721
  Beta virt. eigenvalues --    2.86400   2.87344   2.88156   2.88828   2.90230
  Beta virt. eigenvalues --    2.91823   2.92926   2.94863   2.97575   2.99323
  Beta virt. eigenvalues --    3.00037   3.02263   3.02754   3.03562   3.03946
  Beta virt. eigenvalues --    3.09097   3.12092   3.13181   3.14070   3.15037
  Beta virt. eigenvalues --    3.15750   3.17480   3.20672   3.22084   3.24132
  Beta virt. eigenvalues --    3.27876   3.31308   3.33737   3.35956   3.37236
  Beta virt. eigenvalues --    3.38829   3.42481   3.50751   3.54058   3.60209
  Beta virt. eigenvalues --    3.61745   3.62838   3.64089   3.66904   3.72220
  Beta virt. eigenvalues --    3.72725   3.74319   3.76858   3.77541   3.81420
  Beta virt. eigenvalues --    3.82869   3.85006   3.88609   3.89489   3.92575
  Beta virt. eigenvalues --    3.95633   4.00906   4.11306   4.12389   4.14725
  Beta virt. eigenvalues --    4.14984   4.30219   4.46218   4.47650   4.52194
  Beta virt. eigenvalues --    4.52823   4.67525   4.69372   4.74998   4.76882
  Beta virt. eigenvalues --    4.81080   4.82977   4.84123   4.89215   4.90612
  Beta virt. eigenvalues --    4.96077   4.96987   4.97907   4.98621   4.99613
  Beta virt. eigenvalues --    5.00711   5.00907   5.01576   5.03020   5.03669
  Beta virt. eigenvalues --    5.04805   5.05133   5.05449   5.06423   5.07674
  Beta virt. eigenvalues --    5.07812   5.09809   5.10561   5.10706   5.12778
  Beta virt. eigenvalues --    5.13563   5.14444   5.14882   5.15500   5.15815
  Beta virt. eigenvalues --    5.17419   5.18244   5.19026   5.19656   5.21825
  Beta virt. eigenvalues --    5.24034   5.25566   5.28021   5.29036   5.31534
  Beta virt. eigenvalues --    5.33726   5.36901   5.37687   5.39518   5.40470
  Beta virt. eigenvalues --    5.40969   5.44476   5.45990   5.50318   5.51210
  Beta virt. eigenvalues --    5.56280   5.57779   5.59343   5.60340   5.62391
  Beta virt. eigenvalues --    5.62465   5.63865   5.77118   6.01951   6.03615
  Beta virt. eigenvalues --    6.13907   6.26177   6.29149   6.30679   6.34390
  Beta virt. eigenvalues --    6.34853   6.36918   6.44028   6.45306   6.47721
  Beta virt. eigenvalues --    6.48030   6.51240   6.52451   6.54533   6.57827
  Beta virt. eigenvalues --    6.59271   6.64941   6.67023   6.67717   6.68266
  Beta virt. eigenvalues --    6.69047   6.71593   6.75505   6.77354   6.79559
  Beta virt. eigenvalues --    6.82367   6.83996   6.86602   6.91358   7.00051
  Beta virt. eigenvalues --    7.16004   7.66783   7.69499   7.90063   7.99003
  Beta virt. eigenvalues --    8.06762   8.09425  16.60306  16.70342  22.07852
  Beta virt. eigenvalues --   22.10278  31.74184  31.80858  43.42195  43.43662
  Beta virt. eigenvalues --   43.51693  43.54160  43.58597  43.69114
          Condensed to atoms (all electrons):
               1          2          3          4          5          6
     1  N    6.403013   0.181267  -0.053819  -0.037942   0.002726   0.001691
     2  C    0.181267   5.012691   0.343363  -0.026947  -0.026965  -0.032573
     3  P   -0.053819   0.343363  12.680461   0.371832   0.501343   0.385891
     4  O   -0.037942  -0.026947   0.371832   8.079397  -0.040259  -0.023293
     5  O    0.002726  -0.026965   0.501343  -0.040259   8.145142  -0.028212
     6  O    0.001691  -0.032573   0.385891  -0.023293  -0.028212   7.886762
     7  Cu   0.117537  -0.016030  -0.021593   0.193294   0.009529   0.002092
     8  H   -0.000147   0.003114  -0.005306   0.000837   0.000689   0.288556
     9  H    0.364493  -0.026830   0.007287  -0.001097   0.000069  -0.000102
    10  H   -0.021985   0.406717  -0.026281  -0.001846   0.001841   0.002211
    11  H   -0.029331   0.406434  -0.025080   0.002605  -0.000590   0.002431
    12  H    0.369264  -0.020400   0.001629   0.000187   0.001069  -0.000009
    13  N   -0.006206   0.000086   0.002503  -0.044811  -0.000528  -0.000050
    14  C   -0.000056  -0.000060   0.001206   0.001505  -0.000149  -0.000003
    15  P    0.002699   0.000462  -0.000593  -0.003335   0.008467   0.000026
    16  O   -0.000025  -0.000001   0.000021  -0.000001  -0.000016  -0.000000
    17  O   -0.037864   0.001351  -0.003208  -0.000119  -0.003086   0.000000
    18  O   -0.000190  -0.000469   0.002047  -0.000317  -0.060011  -0.000033
    19  H    0.000030   0.001913  -0.009166   0.002663   0.088122   0.000106
    20  H   -0.000020   0.000004   0.000116   0.001257  -0.000011  -0.000002
    21  H   -0.000035   0.000003   0.000024  -0.000103   0.000005   0.000000
    22  H    0.000000  -0.000006   0.000046  -0.000088   0.000037  -0.000000
    23  H    0.000215   0.000325   0.001119   0.008460   0.000311  -0.000070
    24  H    0.000009  -0.000001  -0.000000  -0.000001   0.000033   0.000000
               7          8          9         10         11         12
     1  N    0.117537  -0.000147   0.364493  -0.021985  -0.029331   0.369264
     2  C   -0.016030   0.003114  -0.026830   0.406717   0.406434  -0.020400
     3  P   -0.021593  -0.005306   0.007287  -0.026281  -0.025080   0.001629
     4  O    0.193294   0.000837  -0.001097  -0.001846   0.002605   0.000187
     5  O    0.009529   0.000689   0.000069   0.001841  -0.000590   0.001069
     6  O    0.002092   0.288556  -0.000102   0.002211   0.002431  -0.000009
     7  Cu  28.409141  -0.000238  -0.018322  -0.002661   0.006068  -0.027781
     8  H   -0.000238   0.331561   0.000009  -0.000321  -0.000063   0.000004
     9  H   -0.018322   0.000009   0.406606  -0.007938  -0.001360  -0.016474
    10  H   -0.002661  -0.000321  -0.007938   0.489295  -0.014837   0.002780
    11  H    0.006068  -0.000063  -0.001360  -0.014837   0.497165  -0.007294
    12  H   -0.027781   0.000004  -0.016474   0.002780  -0.007294   0.393735
    13  N    0.113191   0.000012  -0.000000  -0.000048   0.000000   0.000164
    14  C   -0.016585  -0.000000   0.000017   0.000001  -0.000007   0.000200
    15  P   -0.026122  -0.000006   0.000089   0.000025   0.000060   0.000584
    16  O    0.001308   0.000000  -0.000001   0.000000  -0.000000  -0.000020
    17  O    0.173348   0.000001   0.000667  -0.000050  -0.000084   0.004761
    18  O    0.004457   0.000001  -0.000018   0.000003   0.000013  -0.000100
    19  H   -0.001310   0.000058   0.000050  -0.000041  -0.000113   0.000320
    20  H   -0.015317  -0.000000   0.000017   0.000001  -0.000001   0.000038
    21  H   -0.002035   0.000000   0.000000  -0.000000   0.000000   0.000000
    22  H    0.005240  -0.000000  -0.000001   0.000000  -0.000000  -0.000006
    23  H   -0.028416   0.000008   0.000045  -0.000003  -0.000011   0.000052
    24  H   -0.000163  -0.000000   0.000000  -0.000000   0.000000   0.000006
              13         14         15         16         17         18
     1  N   -0.006206  -0.000056   0.002699  -0.000025  -0.037864  -0.000190
     2  C    0.000086  -0.000060   0.000462  -0.000001   0.001351  -0.000469
     3  P    0.002503   0.001206  -0.000593   0.000021  -0.003208   0.002047
     4  O   -0.044811   0.001505  -0.003335  -0.000001  -0.000119  -0.000317
     5  O   -0.000528  -0.000149   0.008467  -0.000016  -0.003086  -0.060011
     6  O   -0.000050  -0.000003   0.000026  -0.000000   0.000000  -0.000033
     7  Cu   0.113191  -0.016585  -0.026122   0.001308   0.173348   0.004457
     8  H    0.000012  -0.000000  -0.000006   0.000000   0.000001   0.000001
     9  H   -0.000000   0.000017   0.000089  -0.000001   0.000667  -0.000018
    10  H   -0.000048   0.000001   0.000025   0.000000  -0.000050   0.000003
    11  H    0.000000  -0.000007   0.000060  -0.000000  -0.000084   0.000013
    12  H    0.000164   0.000200   0.000584  -0.000020   0.004761  -0.000100
    13  N    6.428529   0.197472  -0.054937   0.001409  -0.036916   0.001360
    14  C    0.197472   4.962931   0.338096  -0.026870  -0.019736  -0.020364
    15  P   -0.054937   0.338096  12.728363   0.401296   0.412694   0.385904
    16  O    0.001409  -0.026870   0.401296   7.843011  -0.020286  -0.023379
    17  O   -0.036916  -0.019736   0.412694  -0.020286   8.023165  -0.027367
    18  O    0.001360  -0.020364   0.385904  -0.023379  -0.027367   7.944272
    19  H    0.000609   0.001788  -0.004277   0.000299   0.004103   0.250109
    20  H    0.363254  -0.026852   0.006681  -0.000078  -0.000889  -0.000141
    21  H   -0.023504   0.411356  -0.028423   0.002025  -0.001449   0.001469
    22  H   -0.028609   0.407429  -0.023818   0.001952   0.002005  -0.000782
    23  H    0.366964  -0.019548   0.001501  -0.000007   0.000220   0.000047
    24  H   -0.000146   0.003050  -0.005485   0.292504   0.000329   0.000722
              19         20         21         22         23         24
     1  N    0.000030  -0.000020  -0.000035   0.000000   0.000215   0.000009
     2  C    0.001913   0.000004   0.000003  -0.000006   0.000325  -0.000001
     3  P   -0.009166   0.000116   0.000024   0.000046   0.001119  -0.000000
     4  O    0.002663   0.001257  -0.000103  -0.000088   0.008460  -0.000001
     5  O    0.088122  -0.000011   0.000005   0.000037   0.000311   0.000033
     6  O    0.000106  -0.000002   0.000000  -0.000000  -0.000070   0.000000
     7  Cu  -0.001310  -0.015317  -0.002035   0.005240  -0.028416  -0.000163
     8  H    0.000058  -0.000000   0.000000  -0.000000   0.000008  -0.000000
     9  H    0.000050   0.000017   0.000000  -0.000001   0.000045   0.000000
    10  H   -0.000041   0.000001  -0.000000   0.000000  -0.000003  -0.000000
    11  H   -0.000113  -0.000001   0.000000  -0.000000  -0.000011   0.000000
    12  H    0.000320   0.000038   0.000000  -0.000006   0.000052   0.000006
    13  N    0.000609   0.363254  -0.023504  -0.028609   0.366964  -0.000146
    14  C    0.001788  -0.026852   0.411356   0.407429  -0.019548   0.003050
    15  P   -0.004277   0.006681  -0.028423  -0.023818   0.001501  -0.005485
    16  O    0.000299  -0.000078   0.002025   0.001952  -0.000007   0.292504
    17  O    0.004103  -0.000889  -0.001449   0.002005   0.000220   0.000329
    18  O    0.250109  -0.000141   0.001469  -0.000782   0.000047   0.000722
    19  H    0.267640   0.000056  -0.000028  -0.000331   0.000520   0.000134
    20  H    0.000056   0.398153  -0.008121  -0.000943  -0.014391   0.000010
    21  H   -0.000028  -0.008121   0.478472  -0.013159   0.002282  -0.000244
    22  H   -0.000331  -0.000943  -0.013159   0.479699  -0.006724  -0.000163
    23  H    0.000520  -0.014391   0.002282  -0.006724   0.381639   0.000007
    24  H    0.000134   0.000010  -0.000244  -0.000163   0.000007   0.318296
          Atomic-Atomic Spin Densities.
               1          2          3          4          5          6
     1  N    0.184582  -0.012804  -0.004802  -0.013666   0.000704  -0.000027
     2  C   -0.012804  -0.002944   0.003801   0.003201  -0.000065   0.000153
     3  P   -0.004802   0.003801  -0.000585   0.005260  -0.000858  -0.001056
     4  O   -0.013666   0.003201   0.005260   0.154506  -0.000124  -0.001106
     5  O    0.000704  -0.000065  -0.000858  -0.000124   0.005495  -0.000024
     6  O   -0.000027   0.000153  -0.001056  -0.001106  -0.000024   0.008369
     7  Cu  -0.021011   0.000387  -0.000271  -0.024806   0.000493  -0.000197
     8  H    0.000007  -0.000011  -0.000029   0.000035  -0.000010   0.000111
     9  H   -0.004553   0.001627   0.000243   0.000524  -0.000032  -0.000000
    10  H    0.000271  -0.000535  -0.000199  -0.000057   0.000014   0.000043
    11  H   -0.000064   0.000544  -0.000574  -0.000149   0.000086   0.000080
    12  H   -0.004109   0.001134   0.000301   0.000304  -0.000124  -0.000004
    13  N    0.004030  -0.000403  -0.000147  -0.012392   0.000111  -0.000013
    14  C   -0.000315   0.000030   0.000006   0.000634  -0.000004   0.000001
    15  P    0.000055   0.000014   0.000037   0.000372  -0.000139   0.000001
    16  O   -0.000005   0.000000   0.000001   0.000000  -0.000000   0.000000
    17  O   -0.010420   0.000500   0.000457   0.001683  -0.000170   0.000001
    18  O   -0.000005  -0.000004  -0.000002  -0.000033  -0.000037  -0.000001
    19  H   -0.000142   0.000041  -0.000057   0.000083   0.000043   0.000004
    20  H   -0.000157   0.000018   0.000002   0.000560  -0.000002   0.000001
    21  H    0.000008  -0.000000  -0.000001  -0.000011   0.000000  -0.000000
    22  H    0.000010  -0.000001  -0.000002  -0.000041  -0.000000  -0.000000
    23  H   -0.000163   0.000029   0.000006   0.000408  -0.000005   0.000010
    24  H    0.000000  -0.000000   0.000000  -0.000000  -0.000000  -0.000000
               7          8          9         10         11         12
     1  N   -0.021011   0.000007  -0.004553   0.000271  -0.000064  -0.004109
     2  C    0.000387  -0.000011   0.001627  -0.000535   0.000544   0.001134
     3  P   -0.000271  -0.000029   0.000243  -0.000199  -0.000574   0.000301
     4  O   -0.024806   0.000035   0.000524  -0.000057  -0.000149   0.000304
     5  O    0.000493  -0.000010  -0.000032   0.000014   0.000086  -0.000124
     6  O   -0.000197   0.000111  -0.000000   0.000043   0.000080  -0.000004
     7  Cu   0.687145   0.000021  -0.000542   0.000382   0.000042   0.000737
     8  H    0.000021  -0.000320  -0.000000   0.000003   0.000008  -0.000001
     9  H   -0.000542  -0.000000   0.000692  -0.000254  -0.000262   0.001296
    10  H    0.000382   0.000003  -0.000254   0.000579   0.000418  -0.000106
    11  H    0.000042   0.000008  -0.000262   0.000418   0.002683  -0.000239
    12  H    0.000737  -0.000001   0.001296  -0.000106  -0.000239  -0.003340
    13  N   -0.021958   0.000001  -0.000145   0.000011   0.000009  -0.000176
    14  C    0.000653  -0.000000   0.000011  -0.000001  -0.000001   0.000022
    15  P   -0.001776   0.000000   0.000002  -0.000001   0.000002  -0.000027
    16  O   -0.000035  -0.000000   0.000000  -0.000000  -0.000000   0.000003
    17  O   -0.022459  -0.000000   0.000431  -0.000012  -0.000028   0.000888
    18  O    0.000182   0.000000   0.000000   0.000000  -0.000001   0.000008
    19  H    0.000039  -0.000001   0.000004  -0.000002  -0.000006   0.000013
    20  H   -0.000549  -0.000000   0.000011  -0.000001  -0.000000   0.000006
    21  H    0.000274   0.000000  -0.000000   0.000000   0.000000  -0.000001
    22  H    0.000179   0.000000  -0.000000   0.000000   0.000000  -0.000001
    23  H    0.001214  -0.000000   0.000004  -0.000002  -0.000000   0.000004
    24  H   -0.000008   0.000000   0.000000  -0.000000  -0.000000   0.000000
              13         14         15         16         17         18
     1  N    0.004030  -0.000315   0.000055  -0.000005  -0.010420  -0.000005
     2  C   -0.000403   0.000030   0.000014   0.000000   0.000500  -0.000004
     3  P   -0.000147   0.000006   0.000037   0.000001   0.000457  -0.000002
     4  O   -0.012392   0.000634   0.000372   0.000000   0.001683  -0.000033
     5  O    0.000111  -0.000004  -0.000139  -0.000000  -0.000170  -0.000037
     6  O   -0.000013   0.000001   0.000001   0.000000   0.000001  -0.000001
     7  Cu  -0.021958   0.000653  -0.001776  -0.000035  -0.022459   0.000182
     8  H    0.000001  -0.000000   0.000000  -0.000000  -0.000000   0.000000
     9  H   -0.000145   0.000011   0.000002   0.000000   0.000431   0.000000
    10  H    0.000011  -0.000001  -0.000001  -0.000000  -0.000012   0.000000
    11  H    0.000009  -0.000001   0.000002  -0.000000  -0.000028  -0.000001
    12  H   -0.000176   0.000022  -0.000027   0.000003   0.000888   0.000008
    13  N    0.167306  -0.010289  -0.004696  -0.000012  -0.010832   0.000212
    14  C   -0.010289  -0.003035   0.003373   0.000054   0.002371   0.000013
    15  P   -0.004696   0.003373   0.003839  -0.000554   0.003749  -0.000479
    16  O   -0.000012   0.000054  -0.000554   0.004183  -0.000313  -0.000063
    17  O   -0.010832   0.002371   0.003749  -0.000313   0.089541   0.000150
    18  O    0.000212   0.000013  -0.000479  -0.000063   0.000150   0.002467
    19  H   -0.000174   0.000054  -0.000056   0.000001   0.000118   0.000106
    20  H   -0.004612   0.001903   0.000334  -0.000001   0.000402  -0.000011
    21  H    0.000240  -0.000400  -0.000270   0.000039  -0.000070   0.000007
    22  H   -0.000064   0.000247  -0.000813   0.000101  -0.000118   0.000095
    23  H   -0.003262   0.000947   0.000271  -0.000003   0.000166  -0.000039
    24  H    0.000002   0.000002  -0.000007   0.000006  -0.000003   0.000027
              19         20         21         22         23         24
     1  N   -0.000142  -0.000157   0.000008   0.000010  -0.000163   0.000000
     2  C    0.000041   0.000018  -0.000000  -0.000001   0.000029  -0.000000
     3  P   -0.000057   0.000002  -0.000001  -0.000002   0.000006   0.000000
     4  O    0.000083   0.000560  -0.000011  -0.000041   0.000408  -0.000000
     5  O    0.000043  -0.000002   0.000000  -0.000000  -0.000005  -0.000000
     6  O    0.000004   0.000001  -0.000000  -0.000000   0.000010  -0.000000
     7  Cu   0.000039  -0.000549   0.000274   0.000179   0.001214  -0.000008
     8  H   -0.000001  -0.000000   0.000000   0.000000  -0.000000   0.000000
     9  H    0.000004   0.000011  -0.000000  -0.000000   0.000004   0.000000
    10  H   -0.000002  -0.000001   0.000000   0.000000  -0.000002  -0.000000
    11  H   -0.000006  -0.000000   0.000000   0.000000  -0.000000  -0.000000
    12  H    0.000013   0.000006  -0.000001  -0.000001   0.000004   0.000000
    13  N   -0.000174  -0.004612   0.000240  -0.000064  -0.003262   0.000002
    14  C    0.000054   0.001903  -0.000400   0.000247   0.000947   0.000002
    15  P   -0.000056   0.000334  -0.000270  -0.000813   0.000271  -0.000007
    16  O    0.000001  -0.000001   0.000039   0.000101  -0.000003   0.000006
    17  O    0.000118   0.000402  -0.000070  -0.000118   0.000166  -0.000003
    18  O    0.000106  -0.000011   0.000007   0.000095  -0.000039   0.000027
    19  H    0.000124   0.000005  -0.000004  -0.000020   0.000006   0.000002
    20  H    0.000005   0.000763  -0.000206  -0.000298   0.000911  -0.000000
    21  H   -0.000004  -0.000206   0.000647   0.000369  -0.000056  -0.000000
    22  H   -0.000020  -0.000298   0.000369   0.003022  -0.000184   0.000001
    23  H    0.000006   0.000911  -0.000056  -0.000184  -0.003922  -0.000000
    24  H    0.000002  -0.000000  -0.000000   0.000001  -0.000000  -0.000182
 Mulliken charges and spin densities:
               1          2
     1  N   -0.255323   0.117424
     2  C   -0.207447  -0.005290
     3  P    0.846156   0.001530
     4  O   -0.481878   0.115185
     5  O   -0.599555   0.005351
     6  O   -0.485420   0.006343
     7  Cu   0.141370   0.598136
     8  H    0.381232  -0.000187
     9  H    0.292793  -0.000943
    10  H    0.173136   0.000553
    11  H    0.163995   0.002548
    12  H    0.297290  -0.003410
    13  N   -0.279796   0.102745
    14  C   -0.194822  -0.003722
    15  P    0.860048   0.003231
    16  O   -0.473141   0.003402
    17  O   -0.471588   0.056029
    18  O   -0.457232   0.002593
    19  H    0.396748   0.000181
    20  H    0.297183  -0.000923
    21  H    0.181466   0.000564
    22  H    0.178221   0.002479
    23  H    0.305459  -0.003660
    24  H    0.391102  -0.000160
 Sum of Mulliken charges =   1.00000   1.00000
 Mulliken charges and spin densities with hydrogens summed into heavy atoms:
               1          2
     1  N    0.334760   0.113070
     2  C    0.129685  -0.002189
     3  P    0.846156   0.001530
     4  O   -0.481878   0.115185
     5  O   -0.599555   0.005351
     6  O   -0.104188   0.006156
     7  Cu   0.141370   0.598136
    13  N    0.322846   0.098163
    14  C    0.164866  -0.000680
    15  P    0.860048   0.003231
    16  O   -0.082038   0.003243
    17  O   -0.471588   0.056029
    18  O   -0.060484   0.002774
 Electronic spatial extent (au):  <R**2>=           3203.3512
 Charge=              1.0000 electrons
 Dipole moment (field-independent basis, Debye):
    X=             -1.7261    Y=             -2.6466    Z=             -0.4157  Tot=              3.1869
 Quadrupole moment (field-independent basis, Debye-Ang):
   XX=            -63.5524   YY=            -78.5178   ZZ=            -74.7051
   XY=             -0.6946   XZ=            -11.8648   YZ=             -0.3895
 Traceless Quadrupole moment (field-independent basis, Debye-Ang):
   XX=              8.7060   YY=             -6.2594   ZZ=             -2.4467
   XY=             -0.6946   XZ=            -11.8648   YZ=             -0.3895
 Octapole moment (field-independent basis, Debye-Ang**2):
  XXX=            -17.7922  YYY=            -40.0205  ZZZ=             -1.6776  XYY=              5.8868
  XXY=             31.4548  XXZ=            -14.7279  XZZ=             -8.0140  YZZ=            -15.2007
  YYZ=              1.8576  XYZ=             41.9190
 Hexadecapole moment (field-independent basis, Debye-Ang**3):
 XXXX=          -2215.9813 YYYY=           -596.1901 ZZZZ=           -495.4323 XXXY=            -21.7477
 XXXZ=             24.4364 YYYX=             20.6101 YYYZ=              7.2616 ZZZX=            -28.9472
 ZZZY=             -4.8634 XXYY=           -362.3644 XXZZ=           -425.8043 YYZZ=           -154.9101
 XXYZ=            -15.8737 YYXZ=             28.7906 ZZXY=            -10.3792
 N-N= 1.733754445070D+03 E-N=-1.050862420422D+04  KE= 2.960377993482D+03
                          Isotropic Fermi Contact Couplings
        Atom                 a.u.       MegaHertz       Gauss      10(-4) cm-1
     1  N(14)              0.10536      34.04320      12.14746      11.35559
     2  C(13)             -0.00416      -4.67644      -1.66867      -1.55989
     3  P(31)             -0.00907     -16.42659      -5.86142      -5.47932
     4  O(17)              0.06310     -38.24823     -13.64792     -12.75824
     5  O(17)             -0.00028       0.17157       0.06122       0.05723
     6  O(17)              0.00211      -1.27713      -0.45571      -0.42601
     7  Cu(63)             0.28270     335.30804     119.64625     111.84672
     8  H(1)              -0.00010      -0.43987      -0.15696      -0.14672
     9  H(1)              -0.00032      -1.43460      -0.51190      -0.47853
    10  H(1)               0.00009       0.39555       0.14114       0.13194
    11  H(1)               0.00158       7.05303       2.51670       2.35264
    12  H(1)              -0.00205      -9.16828      -3.27147      -3.05821
    13  N(14)              0.09936      32.10494      11.45584      10.70906
    14  C(13)             -0.00364      -4.09247      -1.46030      -1.36510
    15  P(31)             -0.00525      -9.50843      -3.39284      -3.17167
    16  O(17)              0.00019      -0.11615      -0.04144      -0.03874
    17  O(17)              0.06217     -37.68995     -13.44871     -12.57201
    18  O(17)             -0.00003       0.01992       0.00711       0.00664
    19  H(1)              -0.00004      -0.18108      -0.06461      -0.06040
    20  H(1)              -0.00041      -1.84982      -0.66006      -0.61703
    21  H(1)               0.00010       0.46442       0.16572       0.15491
    22  H(1)               0.00136       6.10096       2.17697       2.03506
    23  H(1)              -0.00208      -9.30228      -3.31929      -3.10291
    24  H(1)              -0.00010      -0.45016      -0.16063      -0.15016
 --------------------------------------------------------
       Center         ----  Spin Dipole Couplings  ----
                      3XX-RR        3YY-RR        3ZZ-RR
 --------------------------------------------------------
     1   Atom       -0.018255     -0.129601      0.147855
     2   Atom        0.005614     -0.005217     -0.000397
     3   Atom       -0.017614     -0.015360      0.032974
     4   Atom        0.142262     -0.095565     -0.046697
     5   Atom       -0.011318      0.009261      0.002057
     6   Atom        0.000471     -0.007902      0.007432
     7   Atom        1.565689     -3.448086      1.882398
     8   Atom       -0.000279      0.002037     -0.001758
     9   Atom       -0.008603      0.007941      0.000663
    10   Atom        0.006299     -0.004237     -0.002062
    11   Atom        0.001480     -0.000917     -0.000563
    12   Atom       -0.004808     -0.011343      0.016150
    13   Atom       -0.018272     -0.114878      0.133150
    14   Atom        0.006451     -0.003884     -0.002567
    15   Atom       -0.019022     -0.021362      0.040384
    16   Atom        0.003307     -0.004963      0.001656
    17   Atom        0.072369     -0.030820     -0.041549
    18   Atom       -0.005803     -0.000933      0.006736
    19   Atom       -0.002730      0.006801     -0.004071
    20   Atom       -0.008274      0.005931      0.002344
    21   Atom        0.005867     -0.003733     -0.002134
    22   Atom        0.001594     -0.000939     -0.000655
    23   Atom       -0.004678     -0.010294      0.014972
    24   Atom        0.000620      0.000504     -0.001125
 --------------------------------------------------------
                        XY            XZ            YZ
 --------------------------------------------------------
     1   Atom        0.009485     -0.173010     -0.013757
     2   Atom        0.004220     -0.008214     -0.003236
     3   Atom        0.008851     -0.000222      0.011983
     4   Atom        0.228786      0.268938      0.170406
     5   Atom        0.004654      0.002950      0.019291
     6   Atom        0.013003     -0.019280     -0.013127
     7   Atom        0.240730     -0.535127      0.239468
     8   Atom        0.002186      0.000126      0.000969
     9   Atom       -0.007014     -0.011857      0.009858
    10   Atom        0.000545     -0.002209      0.000213
    11   Atom        0.003114     -0.002922     -0.001894
    12   Atom       -0.005835      0.000758     -0.012032
    13   Atom       -0.009898     -0.152602      0.016345
    14   Atom       -0.005029     -0.006307      0.002558
    15   Atom       -0.007993      0.001778     -0.008753
    16   Atom       -0.008693     -0.010804      0.006535
    17   Atom       -0.133615      0.129050     -0.090453
    18   Atom       -0.003641      0.002069     -0.006548
    19   Atom       -0.001649      0.000244     -0.000359
    20   Atom        0.005073     -0.011066     -0.010154
    21   Atom       -0.000345     -0.002068     -0.000011
    22   Atom       -0.002971     -0.002721      0.001776
    23   Atom        0.005187     -0.000426      0.012156
    24   Atom       -0.002065      0.000629     -0.000979
 --------------------------------------------------------


 ---------------------------------------------------------------------------------
              Anisotropic Spin Dipole Couplings in Principal Axis System
 ---------------------------------------------------------------------------------

       Atom             a.u.   MegaHertz   Gauss  10(-4) cm-1        Axes

              Baa    -0.1305    -5.032    -1.795    -1.678 -0.1956  0.9779 -0.0733
     1 N(14)  Bbb    -0.1270    -4.897    -1.747    -1.633  0.8238  0.2044  0.5288
              Bcc     0.2574     9.929     3.543     3.312 -0.5321 -0.0431  0.8456
 
              Baa    -0.0068    -0.919    -0.328    -0.306 -0.0446  0.9145  0.4022
     2 C(13)  Bbb    -0.0061    -0.814    -0.290    -0.272  0.6184 -0.2909  0.7300
              Bcc     0.0129     1.733     0.618     0.578  0.7846  0.2813 -0.5526
 
              Baa    -0.0266    -5.748    -2.051    -1.917 -0.6967  0.7028 -0.1440
     3 P(31)  Bbb    -0.0093    -2.001    -0.714    -0.667  0.7166  0.6720 -0.1869
              Bcc     0.0358     7.749     2.765     2.585  0.0346  0.2334  0.9718
 
              Baa    -0.2437    17.635     6.293     5.883 -0.1321 -0.6534  0.7454
     4 O(17)  Bbb    -0.2316    16.758     5.980     5.590  0.6733 -0.6110 -0.4162
              Bcc     0.4753   -34.394   -12.273   -11.473  0.7274  0.4469  0.5207
 
              Baa    -0.0142     1.027     0.367     0.343  0.3143 -0.6394  0.7017
     5 O(17)  Bbb    -0.0119     0.860     0.307     0.287  0.9382  0.0966 -0.3322
              Bcc     0.0261    -1.887    -0.673    -0.630  0.1446  0.7628  0.6302
 
              Baa    -0.0175     1.265     0.451     0.422 -0.6767  0.7222 -0.1432
     6 O(17)  Bbb    -0.0146     1.053     0.376     0.351  0.4368  0.5503  0.7116
              Bcc     0.0320    -2.318    -0.827    -0.773 -0.5927 -0.4190  0.6879
 
              Baa    -3.4728  -491.691  -175.448  -164.011 -0.0529  0.9974 -0.0499
     7 Cu(63) Bbb     1.1903   168.529    60.135    56.215  0.8010  0.0723  0.5943
              Bcc     2.2825   323.162   115.312   107.795 -0.5964  0.0085  0.8027
 
              Baa    -0.0022    -1.158    -0.413    -0.386  0.4097 -0.4016  0.8191
     8 H(1)   Bbb    -0.0013    -0.713    -0.254    -0.238  0.7648 -0.3383 -0.5483
              Bcc     0.0035     1.871     0.667     0.624  0.4972  0.8511  0.1685
 
              Baa    -0.0167    -8.912    -3.180    -2.973  0.8290  0.0123  0.5590
     9 H(1)   Bbb    -0.0038    -2.001    -0.714    -0.668  0.3813  0.7188 -0.5813
              Bcc     0.0205    10.913     3.894     3.640 -0.4090  0.6951  0.5912
 
              Baa    -0.0043    -2.307    -0.823    -0.770 -0.0872  0.9802 -0.1776
    10 H(1)   Bbb    -0.0025    -1.357    -0.484    -0.453  0.2266  0.1931  0.9547
              Bcc     0.0069     3.664     1.307     1.222  0.9701  0.0430 -0.2390
 
              Baa    -0.0031    -1.637    -0.584    -0.546 -0.6165  0.7762 -0.1323
    11 H(1)   Bbb    -0.0025    -1.345    -0.480    -0.449  0.3177  0.3990  0.8602
              Bcc     0.0056     2.982     1.064     0.995  0.7204  0.4882 -0.4925
 
              Baa    -0.0179    -9.577    -3.417    -3.195  0.3723  0.8778  0.3015
    12 H(1)   Bbb    -0.0030    -1.615    -0.576    -0.539  0.9216 -0.3113 -0.2318
              Bcc     0.0210    11.192     3.994     3.733  0.1096 -0.3641  0.9249
 
              Baa    -0.1160    -4.472    -1.596    -1.492 -0.0273  0.9963 -0.0821
[...]
 0.00203310,0.00037115,0.00024971,0.00049121,-0.00005627,-0.00004593,-0
 .00037337,-0.00002396,0.00006053,0.00001673,-0.00009776,-0.00001390,-0
 .00004079,0.00020788,-0.00078439,0.00015484,-0.00044253,-0.00314431,0.
 00321190,-0.00921970,0.00311986,-0.00003328,-0.34564605,-0.04918804,0.
 04264602,0.46041457,0.00024646,-0.00001753,0.00015754,-0.00019047,0.00
 005054,-0.00003247,0.00060870,-0.00023831,-0.00091009,0.00004706,0.000
 43990,0.00015359,-0.00184161,0.00054139,0.00050149,-0.00026198,0.00004
 391,0.00014119,-0.00183716,-0.00367866,0.00117576,0.00008276,-0.000037
 24,0.00004719,-0.00005826,0.00000542,-0.00003242,0.00002333,0.00004044
 ,0.00003276,-0.00001056,-0.00000135,0.00001855,-0.00027986,0.00002001,
 -0.00001750,-0.00254708,-0.00202627,0.00449687,-0.01484528,0.00357185,
 0.00154292,-0.05738042,-0.06562106,0.02355213,0.12298886,0.13069709,0.
 00082690,-0.00063276,0.00016583,-0.00054531,-0.00029678,0.00022581,0.0
 0082706,0.00139501,-0.00560855,0.00150475,-0.00054515,0.00261529,-0.00
 524912,0.00080247,0.00265367,-0.00014086,-0.00002781,0.00112420,-0.003
 82916,-0.00053646,-0.00002104,0.00016496,-0.00002008,-0.00011045,0.000
 02850,-0.00000519,0.00016151,0.00005308,0.00014747,0.00015416,0.000164
 48,-0.00010445,-0.00000786,-0.00013030,0.00035245,-0.00029449,0.002822
 58,0.00374214,-0.00319526,0.01662579,0.00142655,0.00312618,0.07340805,
 0.02518427,-0.07928393,-0.18792897,-0.20092351,0.47088628,-0.01035905,
 0.00681608,0.00135132,0.00107925,0.00115778,0.00031074,0.00228454,-0.0
 0467019,0.01345461,-0.00675022,-0.00014604,-0.00471439,0.00401952,-0.0
 0133706,-0.00552075,-0.00184710,-0.00053077,-0.00333547,-0.04280593,-0
 .01530693,0.00459283,-0.00000371,0.00050455,0.00062678,-0.00100294,0.0
 0032278,-0.00084076,-0.00020244,-0.00028266,-0.00035193,-0.00038126,0.
 00018617,-0.00009947,-0.00026569,-0.00220116,0.00070945,0.00655217,-0.
 00907149,0.00028167,-0.00322517,0.00812179,0.01220097,-0.14696031,0.12
 140839,0.09456652,-0.02136983,0.01592213,0.02111086,0.20829345,0.00622
 965,0.00027149,0.00103607,-0.00071985,-0.00034855,-0.00137109,0.000225
 62,-0.00222542,-0.00177782,-0.00088988,0.00235504,0.00105110,-0.002727
 35,0.00202519,0.00157004,0.00006618,0.00048079,0.00061362,-0.02538467,
 -0.02712100,0.00723673,0.00009842,-0.00008255,-0.00008452,0.00015835,0
 .00047603,-0.00033918,0.00032469,0.00018967,0.00031383,-0.00000444,0.0
 0008049,0.00020745,-0.00279262,0.00223196,-0.00039262,-0.00179735,-0.0
 0410696,0.00068196,0.01411263,-0.02055630,-0.01745574,0.13490688,-0.28
 231911,-0.15947221,0.00027728,0.01084506,-0.00254722,-0.12951992,0.325
 20305,0.00316660,-0.00281056,0.00213714,-0.00133571,-0.00066172,0.0006
 0491,0.00373724,0.00304665,-0.01329740,0.00158966,-0.00181503,0.005800
 01,-0.00948653,0.00036195,0.00483003,-0.00041399,0.00008503,0.00262017
 ,0.00223309,0.00369072,-0.00683480,0.00045827,-0.00015545,-0.00021990,
 -0.00056687,-0.00003066,0.00026330,0.00010341,0.00030304,0.00032595,0.
 00052941,-0.00021301,0.00005633,0.00026876,-0.00015576,-0.00138066,-0.
 00178041,0.00763136,0.00306527,0.00358069,0.00698797,0.00413072,0.1035
 8121,-0.14967454,-0.18686454,0.01057759,-0.01002856,0.00053195,-0.1310
 3623,0.17652947,0.20331962,0.00062056,-0.00006147,0.00108202,-0.002671
 93,-0.00069539,0.00198169,0.01477968,0.00521599,-0.02637000,0.00101869
 ,-0.00246819,0.00877370,-0.06334651,0.00910832,0.01486466,-0.00740510,
 -0.00192965,0.00284826,-0.00703222,0.00013311,-0.00381534,0.00170354,0
 .00078067,0.00117215,0.00002668,-0.00000567,-0.00004265,0.00018740,0.0
 0091098,0.00074112,0.00041264,-0.00044283,-0.00009495,-0.00039179,-0.0
 0035537,-0.00039512,0.00375404,0.00094551,-0.00276542,-0.00019378,-0.0
 0501955,-0.00622472,-0.13513502,-0.01229508,-0.11374247,-0.03327830,-0
 .00950732,-0.03681857,0.01854000,0.00201945,0.00219345,0.48521184,0.00
 041287,-0.00003913,0.00004845,-0.00027298,0.00001055,-0.00015681,-0.00
 059359,-0.00086362,0.00190267,-0.00007093,0.00093158,-0.00043770,0.007
 44047,0.00501867,-0.00162568,0.00135660,0.00047155,-0.00007596,-0.0033
 2572,-0.00448868,0.00074686,-0.00012722,-0.00026868,-0.00023413,-0.000
 03129,0.00008432,0.00000868,0.00004717,0.00002543,0.00002016,-0.000037
 78,0.00006431,0.00005360,-0.00062101,0.00044365,0.00018182,-0.00075066
 ,0.00171943,-0.00012730,0.01101634,0.00641905,0.01418427,-0.01212341,-
 0.06521152,-0.03674537,-0.00193067,0.00900856,-0.00296733,-0.00049543,
 0.00351433,-0.03003013,-0.05292229,0.07378518,0.00100725,-0.00072662,0
 .00067209,-0.00195339,-0.00046540,0.00103621,0.00471693,0.00312130,-0.
 01486261,0.00234474,-0.00154207,0.00696592,-0.02249771,0.00288719,0.01
 296709,-0.00236098,-0.00036727,0.00247407,-0.01000033,-0.00142784,-0.0
 0144375,0.00085188,0.00011578,0.00006887,-0.00006939,0.00000225,0.0002
 0859,0.00015034,0.00054779,0.00050259,0.00040924,-0.00031418,-0.000052
 95,-0.00054396,0.00033467,-0.00070345,0.00182783,-0.00055931,0.0011154
 1,-0.01602308,-0.00770765,-0.01194703,-0.11486379,-0.03893931,-0.32368
 024,-0.00997916,-0.00459081,0.00027400,-0.00003421,-0.01328962,-0.0243
 0604,0.18002472,0.05580853,0.38385944,-0.00079561,0.00001387,-0.001526
 88,0.00426000,0.00091000,-0.00303888,-0.02144864,-0.00754329,0.0349376
 5,-0.00119787,0.00391870,-0.01325379,0.02999549,-0.00276154,-0.0217606
 6,0.01019131,0.00262884,-0.00372199,0.01190517,0.00071056,0.00349095,-
 0.00230171,-0.00106599,-0.00159739,-0.00005385,-0.00005241,0.00001482,
 -0.00027751,-0.00145168,-0.00113997,-0.00056448,0.00063847,0.00011593,
 0.00087301,0.00024663,0.00036727,-0.00207619,0.00080848,0.00026020,0.0
 0460168,0.00177084,0.00425268,-0.01536890,-0.01347590,-0.04979010,0.00
 926192,0.00327554,0.00752370,-0.00889643,0.00713827,0.01503276,-0.2851
 7248,0.05334244,-0.01480641,0.27055462,0.00003166,-0.00005245,0.000298
 86,0.00037173,-0.00004808,-0.00020829,0.00101508,0.00002148,-0.0053848
 6,0.00048915,-0.00127064,0.00228076,-0.00361526,-0.00862672,0.00354906
 ,-0.00314286,-0.00046228,0.00087739,-0.00108025,0.00146660,-0.00085288
 ,0.00037973,0.00037924,0.00045657,-0.00009286,-0.00003564,-0.00000724,
 -0.00000895,-0.00005384,0.00001264,0.00012049,-0.00009337,-0.00001564,
 0.00014768,-0.00037839,-0.00051634,0.00021774,-0.00039449,0.00010017,-
 0.00020391,-0.00010062,0.00075636,-0.00709544,0.00170362,0.00562898,-0
 .00557699,0.00042688,-0.00460977,0.00287164,-0.00237243,-0.00087956,0.
 06109776,-0.02906354,0.00140631,-0.04674065,0.03884610,-0.00020141,0.0
 0025100,0.00009038,0.00115768,0.00002039,-0.00053958,0.00545040,-0.001
 49961,-0.00110303,-0.00112575,0.00066166,-0.00178193,-0.00283596,0.000
 96722,-0.00899245,-0.00073115,-0.00049633,-0.00028991,0.00221632,-0.00
 007610,-0.00271206,-0.00010849,0.00017437,0.00032272,-0.00004425,0.000
 03488,-0.00011148,-0.00004303,-0.00027327,-0.00018196,-0.00010534,0.00
 009390,0.00004408,0.00014159,-0.00028231,0.00003229,0.00024688,0.00008
 142,-0.00007111,-0.00027897,-0.00035561,-0.00157285,-0.03040136,0.0027
 8249,-0.01910236,-0.00002224,0.00009712,-0.00013546,0.00213404,0.00106
 813,0.00303717,-0.01831945,-0.00033215,-0.02580395,0.04282701,-0.00317
 133,0.05919816,-0.00013877,0.00035176,0.00051575,0.00012207,-0.0000231
 7,0.00009202,0.00053762,-0.00005309,0.00016236,-0.00139847,-0.00004739
 ,0.00052849,-0.00010826,0.00002006,-0.00002275,-0.00011131,-0.00006829
 ,-0.00001029,0.00037225,0.00026849,-0.00443679,0.00003174,0.00000222,0
 .00000802,-0.00003814,0.00018202,-0.00018708,-0.00001604,0.00001996,-0
 .00001803,-0.00002324,-0.00001790,-0.00001579,-0.00003365,-0.00002149,
 0.00004420,-0.04907082,-0.00588604,-0.01455259,-0.00495040,-0.01271322
 ,0.03354487,-0.00459496,0.00379625,0.00041610,-0.00096658,-0.00155304,
 0.00116533,0.00109148,-0.00026170,-0.00054310,0.00117521,-0.00010832,0
 .00038934,-0.00036380,-0.00015430,0.00021135,0.05724885,0.00032459,-0.
 00049430,-0.00099712,-0.00010946,0.00010957,-0.00012237,0.00001985,-0.
 00023286,0.00004374,0.00040207,0.00065447,-0.00020598,0.00001396,0.000
 10075,-0.00001410,-0.00005639,-0.00000310,-0.00006371,-0.00003740,-0.0
 0324273,0.00923835,0.00000228,0.00002117,0.00001297,0.00014131,-0.0002
 9806,0.00027949,0.00001695,-0.00000775,0.00001850,-0.00000018,0.000020
 31,0.00000900,0.00002472,0.00005336,-0.00003147,-0.00932629,-0.0812309
 8,0.14830707,0.00103972,-0.00295060,-0.00222445,-0.00077458,0.00041305
 ,0.00053021,-0.00038023,-0.00042338,0.00047292,-0.00027917,-0.00071737
 ,-0.00080287,0.00023296,0.00002087,-0.00016335,0.00006063,-0.00008363,
 0.00000215,0.00749196,0.07940154,0.00022747,-0.00048166,-0.00043713,-0
 .00009015,-0.00003923,0.00002615,-0.00060688,0.00020165,-0.00075276,0.
 00023268,0.00040013,0.00039111,0.00010165,-0.00000665,0.00031144,0.000
 31025,0.00006889,0.00024532,-0.00124206,0.00116521,0.00100919,-0.00004
 135,-0.00003344,-0.00007077,0.00007248,-0.00016954,0.00026824,0.000015
 84,-0.00000525,0.00002325,0.00005733,-0.00000284,0.00000042,0.00009093
 ,0.00002817,-0.00003315,-0.00262640,0.11491123,-0.37516316,-0.00025545
 ,0.00295433,-0.00715007,0.00149514,-0.00040959,-0.00024614,-0.00045827
 ,-0.00018171,0.00011786,-0.00059866,-0.00036372,-0.00003924,-0.0000696
 4,-0.00013594,0.00028941,0.00003792,-0.00002334,-0.00007501,0.00346478
 ,-0.12834526,0.39790134,0.00004657,0.00007092,-0.00001092,0.00002702,0
 .00005825,-0.00006946,-0.00017513,-0.00024180,0.00063101,-0.00036371,0
 .00043981,-0.00038777,0.00051204,0.00002024,-0.00024491,0.00004255,0.0
 0002410,-0.00010088,-0.00091350,-0.00100917,0.00020224,-0.00002319,-0.
 00000453,0.00000278,-0.00001144,0.00001661,-0.00002751,0.00000532,-0.0
 0001535,-0.00001335,-0.00000769,0.00002446,0.00001359,-0.00007998,0.00
 005397,0.00000612,-0.02570495,-0.00474804,-0.01996220,-0.15555752,-0.0
 1746839,-0.12727303,0.00177957,0.00461513,-0.00128908,-0.00109498,-0.0
 0030757,0.00029445,0.00065630,-0.00067592,-0.00019251,0.00094979,-0.00
 159752,0.00215422,-0.00083079,0.00000551,0.00004537,0.00151137,-0.0004
 3568,-0.00147988,0.17743608,-0.00004842,-0.00003276,-0.00000894,0.0000
 4979,0.00002532,-0.00004175,-0.00022270,-0.00013016,0.00056320,-0.0001
 1676,0.00014265,-0.00024108,0.00064004,-0.00004994,-0.00027243,0.00007
 200,0.00001632,-0.00009097,0.00039850,-0.00001423,0.00016727,-0.000023
 81,-0.00000772,-0.00000072,0.00001093,-0.00000512,0.00000673,-0.000004
 10,-0.00001868,-0.00001629,-0.00001159,0.00001600,0.00000431,0.0000403
 2,-0.00001963,0.00002641,-0.00372378,-0.00182134,-0.00233244,-0.009930
 35,-0.04530862,-0.01495896,0.01509921,0.00417650,0.01645244,-0.0003876
 7,0.00045646,-0.00235828,-0.00207198,-0.00040012,-0.00230672,0.0010860
 1,-0.00344765,0.00483759,-0.00137365,-0.00002558,0.00018894,-0.0002734
 9,0.00128731,-0.00020586,0.01865367,0.04494388,0.00005662,-0.00009041,
 0.00001203,-0.00007032,-0.00005247,0.00004114,0.00022703,0.00014877,-0
 .00075356,0.00028133,-0.00024944,0.00039655,-0.00066182,0.00008034,0.0
 0033754,-0.00005123,-0.00000525,0.00013402,-0.00013727,0.00038510,-0.0
 0024494,0.00003054,-0.00000033,-0.00000438,0.00000906,-0.00001116,0.00
 003106,0.00000510,0.00002155,0.00002385,0.00001640,-0.00001895,-0.0000
 0532,-0.00000940,0.00001233,-0.00002161,0.01573955,0.00271437,0.012221
 55,-0.14167292,-0.02138055,-0.20708879,-0.01085581,-0.00492301,-0.0131
 5308,0.00084059,-0.00031857,0.00152735,0.00115874,-0.00005181,0.001741
 74,-0.00082151,0.00331711,-0.00233896,0.00128659,-0.00000196,-0.000171
 61,-0.00021735,0.00007892,0.00223156,0.14012979,0.01950803,0.21569865,
 0.00010657,0.00025786,-0.00011639,0.00010912,0.00005949,-0.00007772,-0
 .00016431,-0.00010506,0.00095788,-0.00038440,-0.00003575,-0.00078455,0
 .00051422,-0.00010912,-0.00037705,-0.00004914,-0.00004906,-0.00023200,
 -0.00113076,-0.00184490,0.00174974,-0.00003482,0.00003106,0.00002089,-
 0.00000744,0.00001150,-0.00007724,-0.00000001,-0.00001585,-0.00001898,
 -0.00005153,0.00000552,0.00000046,-0.00023818,0.00012506,0.00002299,-0
 .01665331,0.02529485,0.01881128,-0.05554937,0.04081000,0.02720386,0.00
 002181,0.00329931,-0.00466570,-0.00061737,0.00001789,0.00033195,0.0021
 6752,-0.00214334,0.00042992,0.00027275,-0.00058552,0.00054675,-0.00064
 062,0.00017759,-0.00003381,-0.00133510,0.00125094,0.00014137,0.0052674
 4,-0.01722388,-0.00851132,0.06637921,0.00009770,0.00005654,-0.00000097
 ,-0.00005367,0.00001640,-0.00001891,0.00020710,-0.00002333,-0.00035961
 ,0.00000304,0.00001343,0.00011076,-0.00043818,0.00016553,0.00021022,-0
 .00007260,-0.00000242,0.00005492,-0.00110894,-0.00097494,0.00046539,0.
 00002668,0.00000149,0.00000324,-0.00000361,0.00001995,-0.00001511,0.00
 001218,0.00001846,0.00001763,-0.00000248,-0.00000696,0.00000203,-0.000
 17362,0.00011833,-0.00003213,-0.00199622,0.00686171,0.00498451,0.04841
 686,-0.23947937,-0.12241238,0.00370165,-0.01412797,-0.01497343,-0.0010
 0384,0.00064579,0.00159966,0.00271705,-0.00494001,0.00171495,-0.000940
 52,0.00246106,0.00041215,0.00077675,-0.00011591,-0.00008843,-0.0004592
 2,0.00019167,0.00044843,0.00019710,-0.00032423,0.00116905,-0.05016884,
 0.24811468,-0.00016398,0.00006609,-0.00005808,0.00006634,-0.00001463,0
 .00006165,-0.00010037,0.00016671,0.00010912,0.00011223,-0.00018577,0.0
 0005913,0.00017151,-0.00015489,-0.00011121,0.00004015,-0.00002872,-0.0
 0001601,0.00059322,0.00149160,-0.00057128,-0.00001943,0.00000874,-0.00
 000101,0.00000647,-0.00002309,0.00001272,-0.00001315,-0.00001090,-0.00
 001226,0.00000084,-0.00000572,-0.00001163,0.00015815,-0.00009761,0.000
 02415,0.00584485,-0.00780654,-0.00620061,0.02894211,-0.11325205,-0.114
 43068,-0.00304979,0.00999437,0.01052872,0.00035325,-0.00062587,-0.0010
 3142,-0.00284359,0.00606301,-0.00034172,0.00048202,-0.00182062,-0.0003
 8708,-0.00030343,0.00009418,0.00013491,0.00093682,-0.00111671,-0.00044
 306,0.00524939,-0.01967208,-0.00978358,-0.03588039,0.12678795,0.121608
 81,-0.00031788,0.00014104,-0.00028996,0.00024921,-0.00041745,0.0004455
 1,-0.00041442,0.00225380,-0.00282736,-0.00013532,-0.00332523,0.0008167
 3,-0.00085336,-0.00062554,0.00073145,0.00013615,-0.00024529,0.00029714
 ,0.00570453,0.00399889,0.00411010,-0.00002864,0.00004701,-0.00010176,0
 .00001275,0.00004143,-0.00006582,-0.00007770,0.00007591,0.00000887,-0.
 00016333,-0.00023926,-0.00016360,-0.00003027,0.00001704,0.00004164,-0.
 16589547,-0.12672088,-0.10671774,-0.02020311,-0.01703410,-0.01607547,-
 0.00144239,-0.00079587,-0.00006140,-0.00002882,0.00000351,0.00024242,-
 0.00021888,0.00073886,-0.00056191,-0.00043263,0.00034526,-0.00035196,0
 .00106770,-0.00022858,0.00014394,0.00122646,0.00051144,0.00121186,-0.0
 0371685,-0.00081437,0.00321044,0.00195949,0.00057759,-0.00083275,0.183
 59133,0.00037796,0.00006914,0.00057622,-0.00007420,0.00022674,-0.00022
 558,0.00167023,-0.00157755,0.00252090,-0.00295304,0.00246494,-0.001344
 89,-0.00021242,0.00048654,-0.00073203,-0.00067589,-0.00021173,-0.00063
 474,-0.00440705,-0.01212831,-0.00573795,0.00005049,0.00016323,0.000109
 05,-0.00003270,0.00006320,-0.00010712,0.00005066,-0.00002717,-0.000007
 08,0.00007337,0.00015067,0.00008334,-0.00003698,-0.00002262,-0.0000019
 2,-0.15388312,-0.17143974,-0.13341516,0.00661109,-0.00018564,0.0025308
 8,-0.00198517,-0.00105572,-0.00074833,0.00027449,-0.00007579,0.0001609
 3,0.00044105,-0.00069910,0.00074895,0.00072145,0.00034141,-0.00002596,
 -0.00043669,-0.00024944,0.00043295,0.00978935,0.00752251,0.01015975,0.
 00218611,0.00030686,-0.00021772,0.00078517,0.00139991,0.00028513,0.141
 79408,0.17451949,-0.00013473,0.00009508,-0.00001464,0.00017256,-0.0000
 1526,-0.00009327,-0.00145029,0.00108108,0.00097675,-0.00021069,-0.0006
 8157,-0.00162917,0.00070721,-0.00095522,-0.00036423,0.00014629,-0.0001
 4233,-0.00026197,0.00142374,0.00011421,0.00168338,-0.00013165,0.000085
 20,-0.00003708,-0.00002097,0.00002566,-0.00004534,-0.00002299,-0.00003
 416,-0.00003707,-0.00007596,-0.00000122,-0.00001427,-0.00004291,0.0000
 2994,0.00004082,-0.11026969,-0.11178817,-0.16479944,0.00997470,0.01056
 972,0.00908746,0.00249556,-0.00057395,0.00349176,0.00022259,0.00059359
 ,-0.00101232,-0.00028816,0.00054795,-0.00053022,-0.00144019,-0.0009287
 1,-0.00114653,0.00039566,0.00066517,-0.00026622,-0.02125119,-0.0248470
 3,-0.01844338,0.00237672,0.00072117,-0.00078230,0.00052155,-0.00024326
 ,0.00094344,0.11676614,0.12554517,0.17322549,0.00004618,-0.00012122,-0
 .00007434,0.00007944,-0.00001317,-0.00011319,-0.00124003,-0.00005396,0
 .00068948,0.00028374,0.00007726,-0.00018421,0.00201695,-0.00023547,-0.
 00043486,0.00056439,0.00013431,0.00006095,-0.00071050,-0.00012895,0.00
 044938,-0.00012886,-0.00006026,-0.00010458,-0.00000153,0.00002124,0.00
 006247,-0.00000263,-0.00003424,-0.00003101,-0.00001769,0.00002187,0.00
 001201,-0.00009228,0.00010564,0.00005729,-0.00017589,-0.00002405,0.000
 47435,-0.00211122,0.00022975,-0.00118103,-0.02433083,-0.01638971,0.031
 55077,-0.05650402,-0.05259561,0.10754743,-0.00039528,0.00062076,-0.001
 56480,0.00640696,0.00163320,-0.00093885,-0.00272202,0.00101430,-0.0003
 2335,-0.00016750,-0.00013401,0.00000904,0.00024570,0.00017610,0.000017
 17,0.00005823,-0.00031196,0.00024950,0.00001143,-0.00012823,0.00013670
 ,0.07888726,0.00014725,-0.00015831,-0.00003420,0.00005153,-0.00003395,
 -0.00005165,-0.00050390,0.00021512,0.00018036,0.00022694,-0.00002639,0
 .00000965,0.00100315,-0.00028230,-0.00014868,0.00022799,0.00000725,0.0
 0002536,-0.00034075,-0.00045500,0.00036552,-0.00005296,-0.00000394,-0.
 00004034,0.00001677,0.00001383,0.00001932,-0.00000003,-0.00001859,-0.0
 0000853,0.00001780,0.00000431,0.00000368,0.00003492,0.00016538,-0.0000
 6038,-0.00025166,-0.00090676,0.00069781,-0.00335541,0.00152483,0.00026
 356,-0.00453735,-0.00288195,0.00491439,-0.06728949,-0.08467368,0.18029
 091,0.00544340,-0.00178419,-0.00153550,0.00439113,-0.00093711,0.000645
 82,-0.00133821,0.00058313,-0.00028147,-0.00028143,-0.00011179,0.000066
 24,0.00013811,0.00023448,-0.00011396,0.00015506,-0.00008982,-0.0001425
 9,-0.00009929,-0.00004182,0.00013694,0.06619642,0.08965725,-0.00014967
 ,0.00017158,-0.00004202,0.00008194,0.00004998,0.00001826,0.00038491,-0
 .00024301,0.00086800,-0.00042889,0.00008299,-0.00050782,-0.00025088,0.
 00008515,-0.00034653,-0.00027038,-0.00007438,-0.00028151,0.00111837,0.
 00006368,-0.00000218,0.00001875,0.00003238,0.00009655,0.00001832,-0.00
 000772,-0.00004946,-0.00000880,-0.00000957,-0.00001682,-0.00003239,0.0
 0001572,0.00000060,0.00006537,-0.00008439,0.00006626,-0.00042368,-0.00
 065985,0.00099993,-0.00209140,-0.00034653,0.00086862,0.00156564,0.0016
 7874,-0.00074770,0.14267007,0.18515080,-0.39286328,-0.00283491,0.00022
 618,0.00135021,-0.00324375,-0.00065432,-0.00376107,0.00039635,-0.00045
 523,0.00005128,-0.00022448,-0.00005889,0.00003858,-0.00005416,0.000030
 42,-0.00004892,0.00003651,0.00016334,-0.00008300,0.00002348,0.00004518
 ,0.00002836,-0.13636633,-0.18520226,0.39436364\\-0.00000286,-0.0000147
 3,0.00000809,-0.00001003,0.00000688,-0.00001231,0.00001691,-0.00002559
 ,0.00002919,-0.00001105,0.00001095,-0.00002908,-0.00001958,-0.00000048
 ,0.00000666,-0.00001328,-0.00000482,-0.00000110,0.00000523,0.00003873,
 0.00003527,0.00000278,0.00000120,-0.00000355,0.00000530,0.00000816,-0.
 00000071,0.00000172,-0.00000149,0.00000527,-0.00000107,0.00000015,0.00
 000159,0.00000316,-0.00000011,-0.00000537,0.00001329,0.00000414,0.0000
 0819,-0.00000043,-0.00000352,-0.00000500,-0.00001051,0.00003588,0.0000
 2152,0.00002487,-0.00000525,0.00000492,0.00000563,-0.00004395,-0.00003
 541,-0.00001826,-0.00000829,-0.00000905,0.00002172,-0.00000459,0.00000
 070,0.00000562,-0.00000776,-0.00000063,-0.00000232,0.00000280,0.000003
 46,0.00000246,-0.00000081,-0.00000055,-0.00000965,0.00000862,-0.000002
 02,-0.00000964,0.00000388,-0.00002008\\\@
 The archive entry for this job was punched.


 NOTHING PUZZLES ME MORE THAN TIME AND SPACE; AND YET NOTHING TROUBLES ME LESS
                                                          -- CHARLES LAMB (1810)
 Job cpu time:       0 days 15 hours 26 minutes  0.7 seconds.
 Elapsed time:       0 days  0 hours 26 minutes 32.4 seconds.
 File lengths (MBytes):  RWF=   1099 Int=      0 D2E=      0 Chk=     28 Scr=      1
 Normal termination of Gaussian 16 at Thu Sep  5 02:45:38 2024.
