 Entering Gaussian System, Link 0=g16
 Initial command:
 /apps/gaussian/g16c01/g16/l1.exe "/jobfs/124198196.gadi-pbs/Gau-1401095.inp" -scrdir="/jobfs/124198196.gadi-pbs/"
 Entering Link 1 = /apps/gaussian/g16c01/g16/l1.exe PID=   1401096.
  
 Copyright (c) 1988-2019, Gaussian, Inc.  All Rights Reserved.
  
 This is part of the Gaussian(R) 16 program.  It is based on
 the Gaussian(R) 09 system (copyright 2009, Gaussian, Inc.),
 the Gaussian(R) 03 system (copyright 2003, Gaussian, Inc.),
 the Gaussian(R) 98 system (copyright 1998, Gaussian, Inc.),
 the Gaussian(R) 94 system (copyright 1995, Gaussian, Inc.),
 the Gaussian 92(TM) system (copyright 1992, Gaussian, Inc.),
 the Gaussian 90(TM) system (copyright 1990, Gaussian, Inc.),
 the Gaussian 88(TM) system (copyright 1988, Gaussian, Inc.),
 the Gaussian 86(TM) system (copyright 1986, Carnegie Mellon
 University), and the Gaussian 82(TM) system (copyright 1983,
 Carnegie Mellon University). Gaussian is a federally registered
 trademark of Gaussian, Inc.
  
 This software contains proprietary and confidential information,
 including trade secrets, belonging to Gaussian, Inc.
  
 This software is provided under written license and may be
 used, copied, transmitted, or stored only in accord with that
 written license.
  
 The following legend is applicable only to US Government
 contracts under FAR:
  
                    RESTRICTED RIGHTS LEGEND
  
 Use, reproduction and disclosure by the US Government is
 subject to restrictions as set forth in subparagraphs (a)
 and (c) of the Commercial Computer Software - Restricted
 Rights clause in FAR 52.227-19.
  
 Gaussian, Inc.
 340 Quinnipiac St., Bldg. 40, Wallingford CT 06492
  
  
 ---------------------------------------------------------------
 Warning -- This program may not be used in any manner that
 competes with the business of Gaussian, Inc. or will provide
 assistance to any competitor of Gaussian, Inc.  The licensee
 of this program is prohibited from giving any competitor of
 Gaussian, Inc. access to this program.  By using this program,
 the user acknowledges that Gaussian, Inc. is engaged in the
 business of creating and licensing software in the field of
 computational chemistry and represents and warrants to the
 licensee that it is not a competitor of Gaussian, Inc. and that
 it will not use this program in any manner prohibited above.
 ---------------------------------------------------------------
  

 Cite this work as:
 Gaussian 16, Revision C.01,
 M. J. Frisch, G. W. Trucks, H. B. Schlegel, G. E. Scuseria, 
 M. A. Robb, J. R. Cheeseman, G. Scalmani, V. Barone, 
 G. A. Petersson, H. Nakatsuji, X. Li, M. Caricato, A. V. Marenich, 
 J. Bloino, B. G. Janesko, R. Gomperts, B. Mennucci, H. P. Hratchian, 
 J. V. Ortiz, A. F. Izmaylov, J. L. Sonnenberg, D. Williams-Young, 
 F. Ding, F. Lipparini, F. Egidi, J. Goings, B. Peng, A. Petrone, 
 T. Henderson, D. Ranasinghe, V. G. Zakrzewski, J. Gao, N. Rega, 
 G. Zheng, W. Liang, M. Hada, M. Ehara, K. Toyota, R. Fukuda, 
 J. Hasegawa, M. Ishida, T. Nakajima, Y. Honda, O. Kitao, H. Nakai, 
 T. Vreven, K. Throssell, J. A. Montgomery, Jr., J. E. Peralta, 
 F. Ogliaro, M. J. Bearpark, J. J. Heyd, E. N. Brothers, K. N. Kudin, 
 V. N. Staroverov, T. A. Keith, R. Kobayashi, J. Normand, 
 K. Raghavachari, A. P. Rendell, J. C. Burant, S. S. Iyengar, 
 J. Tomasi, M. Cossi, J. M. Millam, M. Klene, C. Adamo, R. Cammi, 
 J. W. Ochterski, R. L. Martin, K. Morokuma, O. Farkas, 
 J. B. Foresman, and D. J. Fox, Gaussian, Inc., Wallingford CT, 2019.
 
 ******************************************
 Gaussian 16:  ES64L-G16RevC.01  3-Jul-2019
                 5-Sep-2024 
 ******************************************
 %mem=60gb
 %nprocs=48
 Will use up to   48 processors via shared memory.
 %RWF=/scratch/gy60/or4187/rwf/AMPA.a.Mg.CONF1.B3LYP.rwf
 %NoSave
 %Chk=AMPA.a.Mg.CONF1.B3LYP.chk
 ----------------------------------------------------------------------
 #UM06/Def2TZVP OPT Freq=Noraman INT(grid=ultrafine) EmpiricalDispersio
 n=GD3 SCF=XQC Pop=NPA
 ----------------------------------------------------------------------
 1/18=20,19=15,26=4,38=1/1,3;
 2/9=110,12=2,17=6,18=5,40=1/2;
 3/5=44,7=101,11=2,25=1,30=1,71=1,74=-54,75=-5,116=2,124=31/1,2,3;
 4//1;
 5/5=2,8=3,13=1,38=5/2,8;
 6/7=2,8=2,9=2,10=2,28=1,40=-1/1,7;
 7//1,2,3,16;
 1/18=20,19=15,26=4/3(2);
 2/9=110/2;
 99//99;
 2/9=110/2;
 3/5=44,7=101,11=2,25=1,30=1,71=1,74=-54,75=-5,116=2,124=31/1,2,3;
 4/5=5,16=3,69=1/1;
 5/5=2,8=3,13=1,38=5/2,8;
 7//1,2,3,16;
 1/18=20,19=15,26=4/3(-5);
 2/9=110/2;
 6/7=2,8=2,9=2,10=2,19=2,28=1,40=-1/1,7;
 99/9=1/99;
 -----------------------------
 AMPA.a.Mg.CONF1.B3LYP.optfreq
 -----------------------------
 Symbolic Z-matrix:
 Charge =  1 Multiplicity = 1
 N                    -1.53612   1.81554  -1.28218 
 C                    -2.5849    1.41593  -0.27957 
 P                    -1.95913  -0.01486   0.70052 
 O                    -0.988     0.39868   1.79422 
 O                    -1.35271  -0.93085  -0.39283 
 O                    -3.31127  -0.65025   1.2923 
 Mg                   -0.21285   0.11593  -1.56199 
 H                    -3.26774  -0.83739   2.24651 
 H                    -0.89531   2.4817   -0.84204 
 H                    -2.86864   2.25358   0.36371 
 H                    -3.47032   1.0757   -0.82275 
 H                    -1.98168   2.32845  -2.04374 
 N                     1.0914   -1.64459  -1.70048 
 C                     2.31389  -1.42949  -0.86253 
 P                     2.07503   0.0396    0.2144 
 O                     1.42657  -0.31363   1.5917 
 O                     1.25413   1.02249  -0.6227 
 O                     3.57881   0.48645   0.49598 
 H                     3.73759   0.91247   1.3579 
 H                     0.46371  -2.29527  -1.21983 
 H                     2.57628  -2.31366  -0.27448 
 H                     3.15543  -1.19096  -1.51878 
 H                     1.36227  -2.10422  -2.57 
 H                     0.41865  -0.02408   1.72675 
 

 GradGradGradGradGradGradGradGradGradGradGradGradGradGradGradGradGradGrad
 Berny optimization.
 Initialization pass.
                           ----------------------------
                           !    Initial Parameters    !
                           ! (Angstroms and Degrees)  !
 --------------------------                            --------------------------
 ! Name  Definition              Value          Derivative Info.                !
 --------------------------------------------------------------------------------
 ! R1    R(1,2)                  1.5049         estimate D2E/DX2                !
 ! R2    R(1,7)                  2.1721         estimate D2E/DX2                !
 ! R3    R(1,9)                  1.0238         estimate D2E/DX2                !
 ! R4    R(1,12)                 1.0206         estimate D2E/DX2                !
 ! R5    R(2,3)                  1.8437         estimate D2E/DX2                !
 ! R6    R(2,10)                 1.0936         estimate D2E/DX2                !
 ! R7    R(2,11)                 1.0931         estimate D2E/DX2                !
 ! R8    R(3,4)                  1.52           estimate D2E/DX2                !
 ! R9    R(3,5)                  1.5499         estimate D2E/DX2                !
 ! R10   R(3,6)                  1.6069         estimate D2E/DX2                !
 ! R11   R(3,7)                  2.861          estimate D2E/DX2                !
 ! R12   R(5,7)                  1.9396         estimate D2E/DX2                !
 ! R13   R(6,8)                  0.9734         estimate D2E/DX2                !
 ! R14   R(7,13)                 2.1954         estimate D2E/DX2                !
 ! R15   R(7,15)                 2.8975         estimate D2E/DX2                !
 ! R16   R(7,17)                 1.9637         estimate D2E/DX2                !
 ! R17   R(13,14)                1.4976         estimate D2E/DX2                !
 ! R18   R(13,20)                1.0239         estimate D2E/DX2                !
 ! R19   R(13,23)                1.0202         estimate D2E/DX2                !
 ! R20   R(14,15)                1.8371         estimate D2E/DX2                !
 ! R21   R(14,21)                1.0938         estimate D2E/DX2                !
 ! R22   R(14,22)                1.0935         estimate D2E/DX2                !
 ! R23   R(15,16)                1.5628         estimate D2E/DX2                !
 ! R24   R(15,17)                1.5299         estimate D2E/DX2                !
 ! R25   R(15,18)                1.5938         estimate D2E/DX2                !
 ! R26   R(16,24)                1.0573         estimate D2E/DX2                !
 ! R27   R(18,19)                0.9745         estimate D2E/DX2                !
 ! A1    A(2,1,7)              107.6143         estimate D2E/DX2                !
 ! A2    A(2,1,9)              108.8177         estimate D2E/DX2                !
 ! A3    A(2,1,12)             109.0464         estimate D2E/DX2                !
 ! A4    A(7,1,9)              100.5567         estimate D2E/DX2                !
 ! A5    A(7,1,12)             124.2697         estimate D2E/DX2                !
 ! A6    A(9,1,12)             105.489          estimate D2E/DX2                !
 ! A7    A(1,2,3)              108.8856         estimate D2E/DX2                !
 ! A8    A(1,2,10)             111.6729         estimate D2E/DX2                !
 ! A9    A(1,2,11)             108.427          estimate D2E/DX2                !
 ! A10   A(3,2,10)             111.7018         estimate D2E/DX2                !
 ! A11   A(3,2,11)             107.3101         estimate D2E/DX2                !
 ! A12   A(10,2,11)            108.6961         estimate D2E/DX2                !
 ! A13   A(2,3,4)              112.8434         estimate D2E/DX2                !
 ! A14   A(2,3,5)              102.4996         estimate D2E/DX2                !
 ! A15   A(2,3,6)              102.5342         estimate D2E/DX2                !
 ! A16   A(2,3,7)               75.5998         estimate D2E/DX2                !
 ! A17   A(4,3,5)              114.7342         estimate D2E/DX2                !
 ! A18   A(4,3,6)              112.3462         estimate D2E/DX2                !
 ! A19   A(4,3,7)               99.5912         estimate D2E/DX2                !
 ! A20   A(5,3,6)              110.814          estimate D2E/DX2                !
 ! A21   A(6,3,7)              145.3755         estimate D2E/DX2                !
 ! A22   A(3,6,8)              113.5414         estimate D2E/DX2                !
 ! A23   A(1,7,3)               64.0273         estimate D2E/DX2                !
 ! A24   A(1,7,5)               89.2333         estimate D2E/DX2                !
 ! A25   A(1,7,15)             115.0031         estimate D2E/DX2                !
 ! A26   A(1,7,17)              91.8487         estimate D2E/DX2                !
 ! A27   A(3,7,13)             112.0758         estimate D2E/DX2                !
 ! A28   A(3,7,15)              89.7662         estimate D2E/DX2                !
 ! A29   A(3,7,17)              95.6709         estimate D2E/DX2                !
 ! A30   A(5,7,13)              87.3845         estimate D2E/DX2                !
 ! A31   A(5,7,15)              94.6035         estimate D2E/DX2                !
 ! A32   A(5,7,17)             113.5686         estimate D2E/DX2                !
 ! A33   A(13,7,15)             63.1575         estimate D2E/DX2                !
 ! A34   A(13,7,17)             87.5111         estimate D2E/DX2                !
 ! A35   A(7,13,14)            109.5407         estimate D2E/DX2                !
 ! A36   A(7,13,20)             96.6505         estimate D2E/DX2                !
 ! A37   A(7,13,23)            124.9472         estimate D2E/DX2                !
 ! A38   A(14,13,20)           109.2094         estimate D2E/DX2                !
 ! A39   A(14,13,23)           108.9575         estimate D2E/DX2                !
 ! A40   A(20,13,23)           106.0551         estimate D2E/DX2                !
 ! A41   A(13,14,15)           109.6762         estimate D2E/DX2                !
 ! A42   A(13,14,21)           112.3662         estimate D2E/DX2                !
 ! A43   A(13,14,22)           108.8893         estimate D2E/DX2                !
 ! A44   A(15,14,21)           111.2501         estimate D2E/DX2                !
 ! A45   A(15,14,22)           106.1065         estimate D2E/DX2                !
 ! A46   A(21,14,22)           108.3223         estimate D2E/DX2                !
 ! A47   A(7,15,14)             76.3699         estimate D2E/DX2                !
 ! A48   A(7,15,16)            102.6284         estimate D2E/DX2                !
 ! A49   A(7,15,18)            147.7685         estimate D2E/DX2                !
 ! A50   A(14,15,16)           112.944          estimate D2E/DX2                !
 ! A51   A(14,15,17)           105.2339         estimate D2E/DX2                !
 ! A52   A(14,15,18)           101.8343         estimate D2E/DX2                !
 ! A53   A(16,15,17)           113.8775         estimate D2E/DX2                !
 ! A54   A(16,15,18)           107.4078         estimate D2E/DX2                !
 ! A55   A(17,15,18)           115.0113         estimate D2E/DX2                !
 ! A56   A(15,16,24)           116.5015         estimate D2E/DX2                !
 ! A57   A(15,18,19)           115.6298         estimate D2E/DX2                !
 ! A58   L(1,7,13,3,-1)        176.1031         estimate D2E/DX2                !
 ! A59   L(1,7,13,3,-2)        181.0962         estimate D2E/DX2                !
 ! D1    D(7,1,2,3)             20.7228         estimate D2E/DX2                !
 ! D2    D(7,1,2,10)           144.5364         estimate D2E/DX2                !
 ! D3    D(7,1,2,11)           -95.7292         estimate D2E/DX2                !
 ! D4    D(9,1,2,3)            -87.4129         estimate D2E/DX2                !
 ! D5    D(9,1,2,10)            36.4008         estimate D2E/DX2                !
 ! D6    D(9,1,2,11)           156.1352         estimate D2E/DX2                !
 ! D7    D(12,1,2,3)           157.9973         estimate D2E/DX2                !
 ! D8    D(12,1,2,10)          -78.1891         estimate D2E/DX2                !
 ! D9    D(12,1,2,11)           41.5453         estimate D2E/DX2                !
 ! D10   D(2,1,7,3)            -13.886          estimate D2E/DX2                !
 ! D11   D(2,1,7,5)              4.2628         estimate D2E/DX2                !
 ! D12   D(2,1,7,15)           -90.4594         estimate D2E/DX2                !
 ! D13   D(2,1,7,17)          -109.294          estimate D2E/DX2                !
 ! D14   D(9,1,7,3)             99.9063         estimate D2E/DX2                !
 ! D15   D(9,1,7,5)            118.055          estimate D2E/DX2                !
 ! D16   D(9,1,7,15)            23.3328         estimate D2E/DX2                !
 ! D17   D(9,1,7,17)             4.4982         estimate D2E/DX2                !
 ! D18   D(12,1,7,3)          -142.9837         estimate D2E/DX2                !
 ! D19   D(12,1,7,5)          -124.8349         estimate D2E/DX2                !
 ! D20   D(12,1,7,15)          140.4429         estimate D2E/DX2                !
 ! D21   D(12,1,7,17)          121.6082         estimate D2E/DX2                !
 ! D22   D(1,2,3,4)             79.1741         estimate D2E/DX2                !
 ! D23   D(1,2,3,5)            -44.773          estimate D2E/DX2                !
 ! D24   D(1,2,3,6)           -159.7425         estimate D2E/DX2                !
 ! D25   D(1,2,3,7)            -15.3283         estimate D2E/DX2                !
 ! D26   D(10,2,3,4)           -44.6224         estimate D2E/DX2                !
 ! D27   D(10,2,3,5)          -168.5695         estimate D2E/DX2                !
 ! D28   D(10,2,3,6)            76.461          estimate D2E/DX2                !
 ! D29   D(10,2,3,7)          -139.1248         estimate D2E/DX2                !
 ! D30   D(11,2,3,4)          -163.6614         estimate D2E/DX2                !
 ! D31   D(11,2,3,5)            72.3915         estimate D2E/DX2                !
 ! D32   D(11,2,3,6)           -42.5779         estimate D2E/DX2                !
 ! D33   D(11,2,3,7)           101.8363         estimate D2E/DX2                !
 ! D34   D(2,3,6,8)           -132.0001         estimate D2E/DX2                !
 ! D35   D(4,3,6,8)            -10.5757         estimate D2E/DX2                !
 ! D36   D(5,3,6,8)            119.2335         estimate D2E/DX2                !
 ! D37   D(7,3,6,8)            145.2614         estimate D2E/DX2                !
 ! D38   D(2,3,7,1)             11.1141         estimate D2E/DX2                !
 ! D39   D(2,3,7,13)          -169.9821         estimate D2E/DX2                !
 ! D40   D(2,3,7,15)           129.2876         estimate D2E/DX2                !
 ! D41   D(2,3,7,17)           100.4087         estimate D2E/DX2                !
 ! D42   D(4,3,7,1)           -100.1767         estimate D2E/DX2                !
 ! D43   D(4,3,7,13)            78.7272         estimate D2E/DX2                !
 ! D44   D(4,3,7,15)            17.9968         estimate D2E/DX2                !
 ! D45   D(4,3,7,17)           -10.8821         estimate D2E/DX2                !
 ! D46   D(6,3,7,1)            102.4025         estimate D2E/DX2                !
 ! D47   D(6,3,7,13)           -78.6937         estimate D2E/DX2                !
 ! D48   D(6,3,7,15)          -139.424          estimate D2E/DX2                !
 ! D49   D(6,3,7,17)          -168.303          estimate D2E/DX2                !
 ! D50   D(3,7,13,14)          -85.8384         estimate D2E/DX2                !
 ! D51   D(3,7,13,20)           27.2952         estimate D2E/DX2                !
 ! D52   D(3,7,13,23)          142.2037         estimate D2E/DX2                !
 ! D53   D(5,7,13,14)         -104.4689         estimate D2E/DX2                !
 ! D54   D(5,7,13,20)            8.6647         estimate D2E/DX2                !
 ! D55   D(5,7,13,23)          123.5732         estimate D2E/DX2                !
 ! D56   D(15,7,13,14)          -7.9712         estimate D2E/DX2                !
 ! D57   D(15,7,13,20)         105.1624         estimate D2E/DX2                !
 ! D58   D(15,7,13,23)        -139.9291         estimate D2E/DX2                !
 ! D59   D(17,7,13,14)           9.2736         estimate D2E/DX2                !
 ! D60   D(17,7,13,20)         122.4072         estimate D2E/DX2                !
 ! D61   D(17,7,13,23)        -122.6843         estimate D2E/DX2                !
 ! D62   D(1,7,15,14)         -177.6854         estimate D2E/DX2                !
 ! D63   D(1,7,15,16)           71.4142         estimate D2E/DX2                !
 ! D64   D(1,7,15,18)          -87.0505         estimate D2E/DX2                !
 ! D65   D(3,7,15,14)          121.336          estimate D2E/DX2                !
 ! D66   D(3,7,15,16)           10.4355         estimate D2E/DX2                !
 ! D67   D(3,7,15,18)         -148.0291         estimate D2E/DX2                !
 ! D68   D(5,7,15,14)           91.0117         estimate D2E/DX2                !
 ! D69   D(5,7,15,16)          -19.8888         estimate D2E/DX2                !
 ! D70   D(5,7,15,18)         -178.3534         estimate D2E/DX2                !
 ! D71   D(13,7,15,14)           6.2937         estimate D2E/DX2                !
 ! D72   D(13,7,15,16)        -104.6067         estimate D2E/DX2                !
 ! D73   D(13,7,15,18)          96.9286         estimate D2E/DX2                !
 ! D74   D(7,13,14,15)          11.9616         estimate D2E/DX2                !
 ! D75   D(7,13,14,21)         136.2505         estimate D2E/DX2                !
 ! D76   D(7,13,14,22)        -103.7443         estimate D2E/DX2                !
 ! D77   D(20,13,14,15)        -92.7407         estimate D2E/DX2                !
 ! D78   D(20,13,14,21)         31.5482         estimate D2E/DX2                !
 ! D79   D(20,13,14,22)        151.5534         estimate D2E/DX2                !
 ! D80   D(23,13,14,15)        151.8332         estimate D2E/DX2                !
 ! D81   D(23,13,14,21)        -83.8779         estimate D2E/DX2                !
 ! D82   D(23,13,14,22)         36.1274         estimate D2E/DX2                !
 ! D83   D(13,14,15,7)          -8.7588         estimate D2E/DX2                !
 ! D84   D(13,14,15,16)         89.3841         estimate D2E/DX2                !
 ! D85   D(13,14,15,17)        -35.4253         estimate D2E/DX2                !
 ! D86   D(13,14,15,18)       -155.7416         estimate D2E/DX2                !
 ! D87   D(21,14,15,7)        -133.6948         estimate D2E/DX2                !
 ! D88   D(21,14,15,16)        -35.5519         estimate D2E/DX2                !
 ! D89   D(21,14,15,17)       -160.3613         estimate D2E/DX2                !
 ! D90   D(21,14,15,18)         79.3224         estimate D2E/DX2                !
 ! D91   D(22,14,15,7)         108.7005         estimate D2E/DX2                !
 ! D92   D(22,14,15,16)       -153.1566         estimate D2E/DX2                !
 ! D93   D(22,14,15,17)         82.034          estimate D2E/DX2                !
 ! D94   D(22,14,15,18)        -38.2823         estimate D2E/DX2                !
 ! D95   D(7,15,16,24)         -26.8477         estimate D2E/DX2                !
 ! D96   D(14,15,16,24)       -107.2112         estimate D2E/DX2                !
 ! D97   D(17,15,16,24)         12.7512         estimate D2E/DX2                !
 ! D98   D(18,15,16,24)        141.3127         estimate D2E/DX2                !
 ! D99   D(7,15,18,19)         127.6142         estimate D2E/DX2                !
 ! D100  D(14,15,18,19)       -149.2263         estimate D2E/DX2                !
 ! D101  D(16,15,18,19)        -30.3376         estimate D2E/DX2                !
 ! D102  D(17,15,18,19)         97.5697         estimate D2E/DX2                !
 --------------------------------------------------------------------------------
 Trust Radius=3.00D-01 FncErr=1.00D-07 GrdErr=1.00D-06 EigMax=2.50D+02 EigMin=1.00D-04
 Number of steps in this run=    144 maximum allowed number of steps=    144.
 GradGradGradGradGradGradGradGradGradGradGradGradGradGradGradGradGradGrad

                          Input orientation:                          
 ---------------------------------------------------------------------
 Center     Atomic      Atomic             Coordinates (Angstroms)
 Number     Number       Type             X           Y           Z
 ---------------------------------------------------------------------
      1          7           0       -1.536120    1.815535   -1.282182
      2          6           0       -2.584896    1.415928   -0.279571
      3         15           0       -1.959128   -0.014865    0.700522
      4          8           0       -0.988000    0.398681    1.794224
      5          8           0       -1.352705   -0.930847   -0.392829
      6          8           0       -3.311270   -0.650252    1.292303
      7         12           0       -0.212848    0.115933   -1.561992
      8          1           0       -3.267738   -0.837389    2.246508
      9          1           0       -0.895313    2.481700   -0.842042
     10          1           0       -2.868640    2.253580    0.363711
     11          1           0       -3.470319    1.075700   -0.822748
     12          1           0       -1.981681    2.328445   -2.043744
     13          7           0        1.091397   -1.644587   -1.700476
     14          6           0        2.313892   -1.429493   -0.862525
     15         15           0        2.075030    0.039602    0.214402
     16          8           0        1.426570   -0.313630    1.591696
     17          8           0        1.254126    1.022487   -0.622699
     18          8           0        3.578813    0.486447    0.495980
     19          1           0        3.737590    0.912466    1.357897
     20          1           0        0.463714   -2.295273   -1.219828
     21          1           0        2.576276   -2.313656   -0.274475
     22          1           0        3.155434   -1.190964   -1.518776
     23          1           0        1.362274   -2.104221   -2.570002
     24          1           0        0.418650   -0.024076    1.726752
 ---------------------------------------------------------------------
                    Distance matrix (angstroms):
                    1          2          3          4          5
     1  N    0.000000
     2  C    1.504941   0.000000
     3  P    2.731376   1.843729   0.000000
     4  O    3.431061   2.808112   1.519964   0.000000
     5  O    2.892612   2.653013   1.549899   2.585315   0.000000
     6  O    3.982365   2.695831   1.606925   2.598031   2.598918
     7  Mg   2.172093   2.993527   2.861044   3.456153   1.939579
     8  H    4.742169   3.453228   2.186110   2.632419   3.262236
     9  H    1.023783   2.075315   3.121545   3.361168   3.472244
    10  H    2.162512   1.093610   2.467083   3.003968   3.607075
    11  H    2.121217   1.093055   2.406944   3.669986   2.948788
    12  H    1.020578   2.075780   3.608685   4.409239   3.707307
    13  N    4.364774   4.990075   4.210283   4.551017   2.862342
    14  C    5.052614   5.695119   4.764766   4.615521   3.730040
    15  P    4.293496   4.883974   4.063707   3.465102   3.613845
    16  O    4.644357   4.752355   3.513745   2.525581   3.470399
    17  O    2.974780   3.874355   3.626571   3.355262   3.265567
    18  O    5.575919   6.281459   5.564346   4.748571   5.207550
    19  H    5.966369   6.550466   5.809017   4.773422   5.689811
    20  H    4.571867   4.893988   3.841636   4.295273   2.417636
    21  H    5.914177   6.367694   5.177350   4.933595   4.166901
    22  H    5.577247   6.425177   5.698003   5.538139   4.653895
    23  H    5.042188   5.763478   5.108175   5.552907   3.672602
    24  H    4.032243   3.888475   2.589799   1.470354   2.907328
                    6          7          8          9         10
     6  O    0.000000
     7  Mg   4.281852   0.000000
     8  H    0.973357   4.974520   0.000000
     9  H    4.494596   2.565334   5.117019   0.000000
    10  H    3.080656   3.915495   3.641194   2.323767   0.000000
    11  H    2.734528   3.475450   3.622331   2.933916   1.776824
    12  H    4.665796   2.873337   5.484771   1.627197   2.566737
    13  N    5.415616   2.195373   5.935681   4.659417   5.927770
    14  C    6.073956   3.043355   6.416484   5.059333   6.475131
    15  P    5.536244   2.897549   5.783056   3.987838   5.418844
    16  O    4.759210   3.580219   4.768609   4.373568   5.152412
    17  O    5.225718   1.963701   5.669104   2.607202   4.414272
    18  O    7.028475   4.330037   7.189725   5.078301   6.686547
    19  H    7.220306   4.976563   7.275042   5.363396   6.813902
    20  H    4.823629   2.527593   5.297607   4.980878   5.856982
    21  H    6.315450   3.916608   6.533546   5.947227   7.135408
    22  H    7.071972   3.613194   7.453825   5.509535   7.190139
    23  H    6.234857   2.902788   6.800047   5.395667   6.745201
    24  H    3.806986   3.351750   3.810653   3.821533   4.225148
                   11         12         13         14         15
    11  H    0.000000
    12  H    2.297008   0.000000
    13  N    5.383272   5.034543   0.000000
    14  C    6.303544   5.828321   1.497638   0.000000
    15  P    5.735859   5.176383   2.733273   1.837137   0.000000
    16  O    5.633765   5.640316   3.566817   2.838255   1.562758
    17  O    4.728978   3.767671   2.881209   2.681945   1.529930
    18  O    7.195591   6.384533   3.943724   2.667656   1.593838
    19  H    7.532317   6.803398   4.784820   3.527317   2.198539
    20  H    5.195935   5.295051   1.023914   2.073740   3.178836
    21  H    6.953391   6.741988   2.164716   1.093797   2.455214
    22  H    7.037245   6.249143   2.121093   1.093506   2.384423
    23  H    6.043075   5.577411   1.020154   2.067924   3.585653
    24  H    4.778445   5.050999   3.850264   3.503070   2.243848
                   16         17         18         19         20
    16  O    0.000000
    17  O    2.592006   0.000000
    18  O    2.544183   2.634948   0.000000
    19  H    2.626554   3.178437   0.974476   0.000000
    20  H    3.571927   3.462491   4.515064   5.258566   0.000000
    21  H    2.967242   3.605439   3.072338   3.797520   2.314508
    22  H    3.665204   3.052423   2.655597   3.610896   2.924761
    23  H    4.531013   3.685103   4.585286   5.492806   1.633059
    24  H    1.057348   2.704300   3.429587   3.468217   3.720577
                   21         22         23         24
    21  H    0.000000
    22  H    1.773174   0.000000
    23  H    2.605208   2.270361   0.000000
    24  H    3.728597   4.402847   4.866161   0.000000
 Stoichiometry    C2H11MgN2O6P2(1+)
 Framework group  C1[X(C2H11MgN2O6P2)]
 Deg. of freedom    66
 Full point group                 C1      NOp   1
 Largest Abelian subgroup         C1      NOp   1
 Largest concise Abelian subgroup C1      NOp   1
                         Standard orientation:                         
 ---------------------------------------------------------------------
 Center     Atomic      Atomic             Coordinates (Angstroms)
 Number     Number       Type             X           Y           Z
 ---------------------------------------------------------------------
      1          7           0        1.596084    1.468749   -1.550971
      2          6           0        2.685960    0.563766   -1.043010
      3         15           0        1.992410   -0.525007    0.273387
      4          8           0        1.200728   -1.695889   -0.285689
      5          8           0        1.164893    0.468020    1.128548
      6          8           0        3.309008   -0.999250    1.063242
      7         12           0        0.048636    1.552462   -0.029002
      8          1           0        3.342722   -1.959029    1.221710
      9          1           0        1.093350    0.990082   -2.303479
     10          1           0        3.138129   -0.017225   -1.851698
     11          1           0        3.459991    1.181245   -0.580014
     12          1           0        2.019957    2.289284   -1.985289
     13          7           0       -1.472838    1.495417    1.552618
     14          6           0       -2.564158    0.546303    1.163875
     15         15           0       -2.031815   -0.447851   -0.286414
     16          8           0       -1.291794   -1.764197    0.115845
     17          8           0       -1.186772    0.502521   -1.136933
     18          8           0       -3.430012   -0.863991   -0.928434
     19          1           0       -3.442985   -1.721804   -1.390596
     20          1           0       -0.884551    1.057832    2.267349
     21          1           0       -2.871941   -0.096432    1.993666
     22          1           0       -3.433402    1.122143    0.834364
     23          1           0       -1.888759    2.316131    1.993246
     24          1           0       -0.247011   -1.786184   -0.045185
 ---------------------------------------------------------------------
 Rotational constants (GHZ):           1.0023549           0.4137770           0.3847326
 Standard basis: def2TZVP (5D, 7F)
 There are   545 symmetry adapted cartesian basis functions of A   symmetry.
 There are   482 symmetry adapted basis functions of A   symmetry.
   482 basis functions,   792 primitive gaussians,   545 cartesian basis functions
    63 alpha electrons       63 beta electrons
       nuclear repulsion energy      1349.8453249164 Hartrees.
 NAtoms=   24 NActive=   24 NUniq=   24 SFac= 1.00D+00 NAtFMM=   60 NAOKFM=F Big=F
 Integral buffers will be    131072 words long.
 Raffenetti 2 integral format.
 Two-electron integral symmetry is turned on.
 Nuclear repulsion after empirical dispersion term =     1349.8413309123 Hartrees.
 One-electron integrals computed using PRISM.
   1 Symmetry operations used in ECPInt.
 ECPInt:  NShTT=   18528 NPrTT=   60045 LenC2=   17097 LenP2D=   39913.
 LDataN:  DoStor=T MaxTD1= 6 Len=  172
 NBasis=   482 RedAO= T EigKep=  4.41D-04  NBF=   482
 NBsUse=   482 1.00D-06 EigRej= -1.00D+00 NBFU=   482
 ExpMin= 3.69D-02 ExpMax= 5.24D+04 ExpMxC= 1.79D+03 IAcc=3 IRadAn=         5 AccDes= 0.00D+00
 Harris functional with IExCor= 1009 and IRadAn=       5 diagonalized for initial guess.
 HarFok:  IExCor= 1009 AccDes= 0.00D+00 IRadAn=         5 IDoV= 1 UseB2=F ITyADJ=14
 ICtDFT=  3500011 ScaDFX=  1.000000  1.000000  1.000000  1.000000
 FoFCou: FMM=F IPFlag=           0 FMFlag=      100000 FMFlg1=           0
         NFxFlg=           0 DoJE=T BraDBF=F KetDBF=T FulRan=T
         wScrn=  0.000000 ICntrl=       500 IOpCl=  0 I1Cent=   200000004 NGrid=           0
         NMat0=    1 NMatS0=      1 NMatT0=    0 NMatD0=    1 NMtDS0=    0 NMtDT0=    0
 Petite list used in FoFCou.
 Initial guess <Sx>= 0.0000 <Sy>= 0.0000 <Sz>= 0.0000 <S**2>=-0.0000 S=-0.0000
 Requested convergence on RMS density matrix=1.00D-08 within  32 cycles.
 Requested convergence on MAX density matrix=1.00D-06.
 Requested convergence on             energy=1.00D-06.
 No special actions if energy rises.
 SCF Done:  E(UM06) =  -1526.58203054     A.U. after   12 cycles
            NFock= 12  Conv=0.95D-08     -V/T= 2.0035
 <Sx>= 0.0000 <Sy>= 0.0000 <Sz>= 0.0000 <S**2>=-0.0000 S=-0.0000
 <L.S>= 0.000000000000E+00
 Annihilation of the first spin contaminant:
 S**2 before annihilation    -0.0000,   after     0.0000
 QCSCF skips out because SCF is already converged.

 **********************************************************************

            Population analysis using the SCF Density.

 **********************************************************************

 Orbital symmetries:
 Alpha Orbitals:
       Occupied  (A) (A) (A) (A) (A) (A) (A) (A) (A) (A) (A) (A)
                 (A) (A) (A) (A) (A) (A) (A) (A) (A) (A) (A) (A)
                 (A) (A) (A) (A) (A) (A) (A) (A) (A) (A) (A) (A)
                 (A) (A) (A) (A) (A) (A) (A) (A) (A) (A) (A) (A)
                 (A) (A) (A) (A) (A) (A) (A) (A) (A) (A) (A) (A)
                 (A) (A) (A)
       Virtual   (A) (A) (A) (A) (A) (A) (A) (A) (A) (A) (A) (A)
                 (A) (A) (A) (A) (A) (A) (A) (A) (A) (A) (A) (A)
                 (A) (A) (A) (A) (A) (A) (A) (A) (A) (A) (A) (A)
                 (A) (A) (A) (A) (A) (A) (A) (A) (A) (A) (A) (A)
                 (A) (A) (A) (A) (A) (A) (A) (A) (A) (A) (A) (A)
                 (A) (A) (A) (A) (A) (A) (A) (A) (A) (A) (A) (A)
                 (A) (A) (A) (A) (A) (A) (A) (A) (A) (A) (A) (A)
                 (A) (A) (A) (A) (A) (A) (A) (A) (A) (A) (A) (A)
                 (A) (A) (A) (A) (A) (A) (A) (A) (A) (A) (A) (A)
                 (A) (A) (A) (A) (A) (A) (A) (A) (A) (A) (A) (A)
                 (A) (A) (A) (A) (A) (A) (A) (A) (A) (A) (A) (A)
                 (A) (A) (A) (A) (A) (A) (A) (A) (A) (A) (A) (A)
                 (A) (A) (A) (A) (A) (A) (A) (A) (A) (A) (A) (A)
                 (A) (A) (A) (A) (A) (A) (A) (A) (A) (A) (A) (A)
                 (A) (A) (A) (A) (A) (A) (A) (A) (A) (A) (A) (A)
                 (A) (A) (A) (A) (A) (A) (A) (A) (A) (A) (A) (A)
                 (A) (A) (A) (A) (A) (A) (A) (A) (A) (A) (A) (A)
                 (A) (A) (A) (A) (A) (A) (A) (A) (A) (A) (A) (A)
                 (A) (A) (A) (A) (A) (A) (A) (A) (A) (A) (A) (A)
                 (A) (A) (A) (A) (A) (A) (A) (A) (A) (A) (A) (A)
                 (A) (A) (A) (A) (A) (A) (A) (A) (A) (A) (A) (A)
                 (A) (A) (A) (A) (A) (A) (A) (A) (A) (A) (A) (A)
                 (A) (A) (A) (A) (A) (A) (A) (A) (A) (A) (A) (A)
                 (A) (A) (A) (A) (A) (A) (A) (A) (A) (A) (A) (A)
                 (A) (A) (A) (A) (A) (A) (A) (A) (A) (A) (A) (A)
                 (A) (A) (A) (A) (A) (A) (A) (A) (A) (A) (A) (A)
                 (A) (A) (A) (A) (A) (A) (A) (A) (A) (A) (A) (A)
                 (A) (A) (A) (A) (A) (A) (A) (A) (A) (A) (A) (A)
                 (A) (A) (A) (A) (A) (A) (A) (A) (A) (A) (A) (A)
                 (A) (A) (A) (A) (A) (A) (A) (A) (A) (A) (A) (A)
                 (A) (A) (A) (A) (A) (A) (A) (A) (A) (A) (A) (A)
                 (A) (A) (A) (A) (A) (A) (A) (A) (A) (A) (A) (A)
                 (A) (A) (A) (A) (A) (A) (A) (A) (A) (A) (A) (A)
                 (A) (A) (A) (A) (A) (A) (A) (A) (A) (A) (A) (A)
                 (A) (A) (A) (A) (A) (A) (A) (A) (A) (A) (A)
 Beta  Orbitals:
       Occupied  (A) (A) (A) (A) (A) (A) (A) (A) (A) (A) (A) (A)
                 (A) (A) (A) (A) (A) (A) (A) (A) (A) (A) (A) (A)
                 (A) (A) (A) (A) (A) (A) (A) (A) (A) (A) (A) (A)
                 (A) (A) (A) (A) (A) (A) (A) (A) (A) (A) (A) (A)
                 (A) (A) (A) (A) (A) (A) (A) (A) (A) (A) (A) (A)
                 (A) (A) (A)
       Virtual   (A) (A) (A) (A) (A) (A) (A) (A) (A) (A) (A) (A)
                 (A) (A) (A) (A) (A) (A) (A) (A) (A) (A) (A) (A)
                 (A) (A) (A) (A) (A) (A) (A) (A) (A) (A) (A) (A)
                 (A) (A) (A) (A) (A) (A) (A) (A) (A) (A) (A) (A)
                 (A) (A) (A) (A) (A) (A) (A) (A) (A) (A) (A) (A)
                 (A) (A) (A) (A) (A) (A) (A) (A) (A) (A) (A) (A)
                 (A) (A) (A) (A) (A) (A) (A) (A) (A) (A) (A) (A)
                 (A) (A) (A) (A) (A) (A) (A) (A) (A) (A) (A) (A)
                 (A) (A) (A) (A) (A) (A) (A) (A) (A) (A) (A) (A)
                 (A) (A) (A) (A) (A) (A) (A) (A) (A) (A) (A) (A)
                 (A) (A) (A) (A) (A) (A) (A) (A) (A) (A) (A) (A)
                 (A) (A) (A) (A) (A) (A) (A) (A) (A) (A) (A) (A)
                 (A) (A) (A) (A) (A) (A) (A) (A) (A) (A) (A) (A)
                 (A) (A) (A) (A) (A) (A) (A) (A) (A) (A) (A) (A)
                 (A) (A) (A) (A) (A) (A) (A) (A) (A) (A) (A) (A)
                 (A) (A) (A) (A) (A) (A) (A) (A) (A) (A) (A) (A)
                 (A) (A) (A) (A) (A) (A) (A) (A) (A) (A) (A) (A)
                 (A) (A) (A) (A) (A) (A) (A) (A) (A) (A) (A) (A)
                 (A) (A) (A) (A) (A) (A) (A) (A) (A) (A) (A) (A)
                 (A) (A) (A) (A) (A) (A) (A) (A) (A) (A) (A) (A)
                 (A) (A) (A) (A) (A) (A) (A) (A) (A) (A) (A) (A)
                 (A) (A) (A) (A) (A) (A) (A) (A) (A) (A) (A) (A)
                 (A) (A) (A) (A) (A) (A) (A) (A) (A) (A) (A) (A)
                 (A) (A) (A) (A) (A) (A) (A) (A) (A) (A) (A) (A)
                 (A) (A) (A) (A) (A) (A) (A) (A) (A) (A) (A) (A)
                 (A) (A) (A) (A) (A) (A) (A) (A) (A) (A) (A) (A)
                 (A) (A) (A) (A) (A) (A) (A) (A) (A) (A) (A) (A)
                 (A) (A) (A) (A) (A) (A) (A) (A) (A) (A) (A) (A)
                 (A) (A) (A) (A) (A) (A) (A) (A) (A) (A) (A) (A)
                 (A) (A) (A) (A) (A) (A) (A) (A) (A) (A) (A) (A)
                 (A) (A) (A) (A) (A) (A) (A) (A) (A) (A) (A) (A)
                 (A) (A) (A) (A) (A) (A) (A) (A) (A) (A) (A) (A)
                 (A) (A) (A) (A) (A) (A) (A) (A) (A) (A) (A) (A)
                 (A) (A) (A) (A) (A) (A) (A) (A) (A) (A) (A) (A)
                 (A) (A) (A) (A) (A) (A) (A) (A) (A) (A) (A)
 The electronic state is 1-A.
 Alpha  occ. eigenvalues --  -77.49592 -77.45747 -47.09533 -19.38888 -19.35950
 Alpha  occ. eigenvalues --  -19.35891 -19.34230 -19.31702 -19.30089 -14.57856
 Alpha  occ. eigenvalues --  -14.57227 -10.43790 -10.41738  -6.90004  -6.86180
 Alpha  occ. eigenvalues --   -5.02074  -5.01914  -5.01846  -4.98250  -4.98104
 Alpha  occ. eigenvalues --   -4.98006  -3.32713  -2.04225  -2.03858  -2.03798
 Alpha  occ. eigenvalues --   -1.24355  -1.20766  -1.18750  -1.15469  -1.14363
 Alpha  occ. eigenvalues --   -1.10414  -1.08751  -1.07760  -0.87546  -0.85148
 Alpha  occ. eigenvalues --   -0.77320  -0.73752  -0.71264  -0.69389  -0.68903
 Alpha  occ. eigenvalues --   -0.65915  -0.64337  -0.63492  -0.62326  -0.61607
 Alpha  occ. eigenvalues --   -0.59703  -0.59270  -0.57477  -0.56384  -0.56018
 Alpha  occ. eigenvalues --   -0.55766  -0.53145  -0.52507  -0.50465  -0.50044
 Alpha  occ. eigenvalues --   -0.49657  -0.49268  -0.48491  -0.47848  -0.47069
 Alpha  occ. eigenvalues --   -0.46034  -0.43895  -0.43283
 Alpha virt. eigenvalues --   -0.18257  -0.12587  -0.11249  -0.10818  -0.09503
 Alpha virt. eigenvalues --   -0.07743  -0.07566  -0.06787  -0.05742  -0.05396
 Alpha virt. eigenvalues --   -0.04333  -0.03615  -0.03314  -0.03078  -0.02802
 Alpha virt. eigenvalues --   -0.01650  -0.00911  -0.00314  -0.00072   0.00912
 Alpha virt. eigenvalues --    0.01698   0.02074   0.02483   0.03474   0.04716
 Alpha virt. eigenvalues --    0.05818   0.06594   0.07157   0.08863   0.10050
 Alpha virt. eigenvalues --    0.11104   0.11978   0.13235   0.14185   0.14408
 Alpha virt. eigenvalues --    0.15186   0.15659   0.16157   0.17029   0.17469
 Alpha virt. eigenvalues --    0.17884   0.18594   0.19455   0.20700   0.20883
 Alpha virt. eigenvalues --    0.21791   0.22856   0.24012   0.24839   0.25402
 Alpha virt. eigenvalues --    0.25834   0.26236   0.26487   0.26999   0.28279
 Alpha virt. eigenvalues --    0.28584   0.29147   0.31048   0.31512   0.32429
 Alpha virt. eigenvalues --    0.32777   0.33211   0.33833   0.34506   0.35639
 Alpha virt. eigenvalues --    0.36157   0.37014   0.37831   0.38440   0.38962
 Alpha virt. eigenvalues --    0.39201   0.39673   0.41475   0.43067   0.43524
 Alpha virt. eigenvalues --    0.44424   0.45224   0.46300   0.48740   0.49241
 Alpha virt. eigenvalues --    0.49900   0.50503   0.52074   0.53386   0.54882
 Alpha virt. eigenvalues --    0.56312   0.56533   0.57072   0.57492   0.58765
 Alpha virt. eigenvalues --    0.59772   0.60232   0.61435   0.61900   0.63148
 Alpha virt. eigenvalues --    0.64768   0.65797   0.67228   0.67897   0.68930
 Alpha virt. eigenvalues --    0.69951   0.71163   0.71952   0.73405   0.73791
 Alpha virt. eigenvalues --    0.75020   0.75702   0.77107   0.78417   0.80259
 Alpha virt. eigenvalues --    0.83329   0.85066   0.85462   0.88645   0.90207
 Alpha virt. eigenvalues --    0.93284   0.94694   0.95791   1.01072   1.02248
 Alpha virt. eigenvalues --    1.04782   1.06827   1.07955   1.10579   1.11095
 Alpha virt. eigenvalues --    1.12417   1.13421   1.15033   1.15250   1.16664
 Alpha virt. eigenvalues --    1.17867   1.18672   1.20252   1.20851   1.21453
 Alpha virt. eigenvalues --    1.22888   1.23776   1.24716   1.26233   1.27920
 Alpha virt. eigenvalues --    1.28141   1.29916   1.31013   1.31922   1.33538
 Alpha virt. eigenvalues --    1.34637   1.34885   1.35394   1.36024   1.36398
 Alpha virt. eigenvalues --    1.38057   1.39710   1.41513   1.43232   1.43429
 Alpha virt. eigenvalues --    1.47254   1.48551   1.50370   1.52077   1.52964
 Alpha virt. eigenvalues --    1.57168   1.59272   1.60288   1.60438   1.63729
 Alpha virt. eigenvalues --    1.64607   1.66391   1.66618   1.68552   1.69682
 Alpha virt. eigenvalues --    1.71127   1.71510   1.72622   1.72862   1.74451
 Alpha virt. eigenvalues --    1.75276   1.75960   1.76565   1.78020   1.79789
 Alpha virt. eigenvalues --    1.80405   1.81165   1.81495   1.82301   1.83543
 Alpha virt. eigenvalues --    1.84348   1.85597   1.86801   1.87271   1.89095
 Alpha virt. eigenvalues --    1.89599   1.90818   1.92308   1.94317   1.95028
 Alpha virt. eigenvalues --    1.95298   1.97275   1.98137   1.99909   2.01284
 Alpha virt. eigenvalues --    2.03293   2.03988   2.05505   2.07421   2.08209
 Alpha virt. eigenvalues --    2.09057   2.09592   2.10811   2.11693   2.12278
 Alpha virt. eigenvalues --    2.13799   2.14251   2.15091   2.16013   2.18288
 Alpha virt. eigenvalues --    2.19241   2.21139   2.21906   2.24149   2.24363
 Alpha virt. eigenvalues --    2.27639   2.28834   2.30717   2.32999   2.34974
 Alpha virt. eigenvalues --    2.36223   2.37196   2.38921   2.40821   2.42938
 Alpha virt. eigenvalues --    2.43485   2.44757   2.46078   2.46983   2.50598
 Alpha virt. eigenvalues --    2.52660   2.53395   2.54442   2.55040   2.55254
 Alpha virt. eigenvalues --    2.57525   2.60268   2.61063   2.63733   2.67708
 Alpha virt. eigenvalues --    2.73274   2.74669   2.76232   2.79752   2.80480
 Alpha virt. eigenvalues --    2.81690   2.84225   2.85286   2.85891   2.88243
 Alpha virt. eigenvalues --    2.90620   2.91710   2.92812   2.94665   2.96463
 Alpha virt. eigenvalues --    2.96621   2.98067   3.00689   3.03579   3.04643
 Alpha virt. eigenvalues --    3.05666   3.07309   3.09705   3.12747   3.14396
 Alpha virt. eigenvalues --    3.14756   3.15400   3.16569   3.17614   3.20453
 Alpha virt. eigenvalues --    3.23560   3.30516   3.32153   3.33174   3.36741
 Alpha virt. eigenvalues --    3.37475   3.40235   3.41317   3.46164   3.55162
 Alpha virt. eigenvalues --    3.56610   3.64025   3.65360   3.65577   3.67542
 Alpha virt. eigenvalues --    3.73401   3.78598   3.78812   3.82209   3.85065
 Alpha virt. eigenvalues --    3.89096   3.90537   3.91760   3.96631   4.09908
 Alpha virt. eigenvalues --    4.10006   4.14014   4.15096   4.44173   4.44320
 Alpha virt. eigenvalues --    4.51896   4.52298   4.67778   4.69971   4.70972
 Alpha virt. eigenvalues --    4.72848   4.82331   4.83184   4.84652   4.85884
 Alpha virt. eigenvalues --    4.90334   4.91259   4.96552   4.97850   4.99570
 Alpha virt. eigenvalues --    5.00143   5.00584   5.01345   5.02520   5.02589
 Alpha virt. eigenvalues --    5.03271   5.03739   5.04660   5.04915   5.06148
 Alpha virt. eigenvalues --    5.06621   5.06832   5.08330   5.09735   5.11383
 Alpha virt. eigenvalues --    5.12354   5.13096   5.14108   5.15118   5.18072
 Alpha virt. eigenvalues --    5.18788   5.19484   5.20451   5.20931   5.21373
 Alpha virt. eigenvalues --    5.23352   5.24162   5.26704   5.28672   5.29995
 Alpha virt. eigenvalues --    5.31253   5.35579   5.36660   5.38804   5.39138
 Alpha virt. eigenvalues --    5.41064   5.41998   5.43657   5.46314   5.48010
 Alpha virt. eigenvalues --    5.50075   5.56705   5.65314   6.03033   6.05144
 Alpha virt. eigenvalues --    6.16101   6.25902   6.28269   6.29325   6.32583
 Alpha virt. eigenvalues --    6.33955   6.37257   6.38667   6.39579   6.42505
 Alpha virt. eigenvalues --    6.43397   6.46838   6.48688   6.49082   6.52072
 Alpha virt. eigenvalues --    6.54249   6.55062   6.57426   6.59096   6.60079
 Alpha virt. eigenvalues --    6.63582   6.67188   6.68048   6.69828   6.70529
 Alpha virt. eigenvalues --    6.73415   6.76570   6.77621   6.81402   6.82220
 Alpha virt. eigenvalues --    6.87726   6.88116   6.88787   6.91973   6.97983
 Alpha virt. eigenvalues --    7.13451   7.66305   7.69815   7.93053   7.99936
 Alpha virt. eigenvalues --    8.06055   8.08859  16.62128  16.69478  22.09748
 Alpha virt. eigenvalues --   22.11262  31.76583  31.78111  43.39437  43.49380
 Alpha virt. eigenvalues --   43.52988  43.56113  43.61712  43.70838
  Beta  occ. eigenvalues --  -77.49592 -77.45747 -47.09533 -19.38888 -19.35950
  Beta  occ. eigenvalues --  -19.35891 -19.34230 -19.31702 -19.30089 -14.57856
  Beta  occ. eigenvalues --  -14.57227 -10.43790 -10.41738  -6.90004  -6.86180
  Beta  occ. eigenvalues --   -5.02074  -5.01914  -5.01846  -4.98250  -4.98104
  Beta  occ. eigenvalues --   -4.98006  -3.32713  -2.04225  -2.03858  -2.03798
  Beta  occ. eigenvalues --   -1.24355  -1.20766  -1.18750  -1.15469  -1.14363
  Beta  occ. eigenvalues --   -1.10414  -1.08751  -1.07760  -0.87546  -0.85148
  Beta  occ. eigenvalues --   -0.77320  -0.73752  -0.71264  -0.69389  -0.68903
  Beta  occ. eigenvalues --   -0.65915  -0.64337  -0.63492  -0.62326  -0.61607
  Beta  occ. eigenvalues --   -0.59703  -0.59270  -0.57477  -0.56384  -0.56018
  Beta  occ. eigenvalues --   -0.55766  -0.53145  -0.52507  -0.50465  -0.50044
  Beta  occ. eigenvalues --   -0.49657  -0.49268  -0.48491  -0.47848  -0.47069
  Beta  occ. eigenvalues --   -0.46034  -0.43895  -0.43283
  Beta virt. eigenvalues --   -0.18257  -0.12587  -0.11249  -0.10818  -0.09503
  Beta virt. eigenvalues --   -0.07743  -0.07566  -0.06787  -0.05742  -0.05396
  Beta virt. eigenvalues --   -0.04333  -0.03615  -0.03314  -0.03078  -0.02802
  Beta virt. eigenvalues --   -0.01650  -0.00911  -0.00314  -0.00072   0.00912
  Beta virt. eigenvalues --    0.01698   0.02074   0.02483   0.03474   0.04716
  Beta virt. eigenvalues --    0.05818   0.06594   0.07157   0.08863   0.10050
  Beta virt. eigenvalues --    0.11104   0.11978   0.13235   0.14185   0.14408
  Beta virt. eigenvalues --    0.15186   0.15659   0.16157   0.17029   0.17469
  Beta virt. eigenvalues --    0.17884   0.18594   0.19455   0.20700   0.20883
  Beta virt. eigenvalues --    0.21791   0.22856   0.24012   0.24839   0.25402
  Beta virt. eigenvalues --    0.25834   0.26236   0.26487   0.26999   0.28279
  Beta virt. eigenvalues --    0.28584   0.29147   0.31048   0.31512   0.32429
  Beta virt. eigenvalues --    0.32777   0.33211   0.33833   0.34506   0.35639
  Beta virt. eigenvalues --    0.36157   0.37014   0.37831   0.38440   0.38962
  Beta virt. eigenvalues --    0.39201   0.39673   0.41475   0.43067   0.43524
  Beta virt. eigenvalues --    0.44424   0.45224   0.46300   0.48740   0.49241
  Beta virt. eigenvalues --    0.49900   0.50503   0.52074   0.53386   0.54882
  Beta virt. eigenvalues --    0.56312   0.56533   0.57072   0.57492   0.58765
  Beta virt. eigenvalues --    0.59772   0.60232   0.61435   0.61900   0.63148
  Beta virt. eigenvalues --    0.64768   0.65797   0.67228   0.67897   0.68930
  Beta virt. eigenvalues --    0.69951   0.71163   0.71952   0.73405   0.73791
  Beta virt. eigenvalues --    0.75020   0.75702   0.77107   0.78417   0.80259
  Beta virt. eigenvalues --    0.83329   0.85066   0.85462   0.88645   0.90207
  Beta virt. eigenvalues --    0.93284   0.94694   0.95791   1.01072   1.02248
  Beta virt. eigenvalues --    1.04782   1.06827   1.07955   1.10579   1.11095
  Beta virt. eigenvalues --    1.12417   1.13421   1.15033   1.15250   1.16664
  Beta virt. eigenvalues --    1.17867   1.18672   1.20252   1.20851   1.21453
  Beta virt. eigenvalues --    1.22888   1.23776   1.24716   1.26233   1.27920
  Beta virt. eigenvalues --    1.28141   1.29916   1.31013   1.31922   1.33538
  Beta virt. eigenvalues --    1.34637   1.34885   1.35394   1.36024   1.36398
  Beta virt. eigenvalues --    1.38057   1.39710   1.41513   1.43232   1.43429
  Beta virt. eigenvalues --    1.47254   1.48551   1.50370   1.52077   1.52964
  Beta virt. eigenvalues --    1.57168   1.59272   1.60288   1.60438   1.63729
  Beta virt. eigenvalues --    1.64607   1.66391   1.66618   1.68552   1.69682
  Beta virt. eigenvalues --    1.71127   1.71510   1.72622   1.72862   1.74451
  Beta virt. eigenvalues --    1.75276   1.75960   1.76565   1.78020   1.79789
  Beta virt. eigenvalues --    1.80405   1.81165   1.81495   1.82301   1.83543
  Beta virt. eigenvalues --    1.84348   1.85597   1.86801   1.87271   1.89095
  Beta virt. eigenvalues --    1.89599   1.90818   1.92308   1.94317   1.95028
  Beta virt. eigenvalues --    1.95298   1.97275   1.98137   1.99909   2.01284
  Beta virt. eigenvalues --    2.03293   2.03988   2.05505   2.07421   2.08209
  Beta virt. eigenvalues --    2.09057   2.09592   2.10811   2.11693   2.12278
  Beta virt. eigenvalues --    2.13799   2.14251   2.15091   2.16013   2.18288
  Beta virt. eigenvalues --    2.19241   2.21139   2.21906   2.24149   2.24363
  Beta virt. eigenvalues --    2.27639   2.28834   2.30717   2.32999   2.34974
  Beta virt. eigenvalues --    2.36223   2.37196   2.38921   2.40821   2.42938
  Beta virt. eigenvalues --    2.43485   2.44757   2.46078   2.46983   2.50598
  Beta virt. eigenvalues --    2.52660   2.53395   2.54442   2.55040   2.55254
  Beta virt. eigenvalues --    2.57525   2.60268   2.61063   2.63733   2.67708
  Beta virt. eigenvalues --    2.73274   2.74669   2.76232   2.79752   2.80480
  Beta virt. eigenvalues --    2.81690   2.84225   2.85286   2.85891   2.88243
  Beta virt. eigenvalues --    2.90620   2.91710   2.92812   2.94665   2.96463
  Beta virt. eigenvalues --    2.96621   2.98067   3.00689   3.03579   3.04643
  Beta virt. eigenvalues --    3.05666   3.07309   3.09705   3.12747   3.14396
  Beta virt. eigenvalues --    3.14756   3.15400   3.16569   3.17614   3.20453
  Beta virt. eigenvalues --    3.23560   3.30516   3.32153   3.33174   3.36741
  Beta virt. eigenvalues --    3.37475   3.40235   3.41317   3.46164   3.55162
  Beta virt. eigenvalues --    3.56610   3.64025   3.65360   3.65577   3.67542
  Beta virt. eigenvalues --    3.73401   3.78598   3.78812   3.82209   3.85065
  Beta virt. eigenvalues --    3.89096   3.90537   3.91760   3.96631   4.09908
  Beta virt. eigenvalues --    4.10006   4.14014   4.15096   4.44173   4.44320
  Beta virt. eigenvalues --    4.51896   4.52298   4.67778   4.69971   4.70972
  Beta virt. eigenvalues --    4.72848   4.82331   4.83184   4.84652   4.85884
  Beta virt. eigenvalues --    4.90334   4.91259   4.96552   4.97850   4.99570
  Beta virt. eigenvalues --    5.00143   5.00584   5.01345   5.02520   5.02589
  Beta virt. eigenvalues --    5.03271   5.03739   5.04660   5.04915   5.06148
  Beta virt. eigenvalues --    5.06621   5.06832   5.08330   5.09735   5.11383
  Beta virt. eigenvalues --    5.12354   5.13096   5.14108   5.15118   5.18072
  Beta virt. eigenvalues --    5.18788   5.19484   5.20451   5.20931   5.21373
  Beta virt. eigenvalues --    5.23352   5.24162   5.26704   5.28672   5.29995
  Beta virt. eigenvalues --    5.31253   5.35579   5.36660   5.38804   5.39138
  Beta virt. eigenvalues --    5.41064   5.41998   5.43657   5.46314   5.48010
  Beta virt. eigenvalues --    5.50075   5.56705   5.65314   6.03033   6.05144
  Beta virt. eigenvalues --    6.16101   6.25902   6.28269   6.29325   6.32583
  Beta virt. eigenvalues --    6.33955   6.37257   6.38667   6.39579   6.42505
  Beta virt. eigenvalues --    6.43397   6.46838   6.48688   6.49082   6.52072
  Beta virt. eigenvalues --    6.54249   6.55062   6.57426   6.59096   6.60079
  Beta virt. eigenvalues --    6.63582   6.67188   6.68048   6.69828   6.70529
  Beta virt. eigenvalues --    6.73415   6.76570   6.77621   6.81402   6.82220
  Beta virt. eigenvalues --    6.87726   6.88116   6.88787   6.91973   6.97983
  Beta virt. eigenvalues --    7.13451   7.66305   7.69815   7.93053   7.99936
  Beta virt. eigenvalues --    8.06055   8.08859  16.62128  16.69478  22.09748
  Beta virt. eigenvalues --   22.11262  31.76583  31.78111  43.39437  43.49380
  Beta virt. eigenvalues --   43.52988  43.56113  43.61712  43.70838
          Condensed to atoms (all electrons):
               1          2          3          4          5          6
     1  N    6.696367   0.147220  -0.039753  -0.000411  -0.023437   0.001925
     2  C    0.147220   5.047978   0.343350  -0.027779  -0.027046  -0.038063
     3  P   -0.039753   0.343350  12.670280   0.497411   0.392258   0.395219
     4  O   -0.000411  -0.027779   0.497411   8.122397  -0.038654  -0.030705
     5  O   -0.023437  -0.027046   0.392258  -0.038654   8.119027  -0.023195
     6  O    0.001925  -0.038063   0.395219  -0.030705  -0.023195   7.890358
     7  Mg   0.148991  -0.033914  -0.015807   0.025956   0.242554   0.002464
     8  H   -0.000150   0.003702  -0.007360   0.001498   0.001053   0.291286
     9  H    0.350238  -0.018266  -0.000410  -0.001509   0.000256  -0.000009
    10  H   -0.026766   0.413301  -0.024982  -0.001045   0.002473   0.002064
    11  H   -0.026678   0.408490  -0.025746   0.001593  -0.002761   0.002445
    12  H    0.352711  -0.030345   0.007908  -0.000263  -0.000756  -0.000111
    13  N   -0.003375  -0.000117   0.001078  -0.000085  -0.026257  -0.000011
    14  C    0.000004  -0.000119  -0.001154  -0.000587  -0.003279   0.000002
    15  P    0.000645  -0.000795   0.003496   0.001214  -0.003247   0.000041
    16  O    0.000005  -0.000359   0.000595  -0.065783  -0.001913  -0.000058
    17  O   -0.020773  -0.001764  -0.005224  -0.002803  -0.004593   0.000005
    18  O   -0.000006   0.000002   0.000030  -0.000049   0.000011  -0.000000
    19  H    0.000003  -0.000001  -0.000004   0.000010   0.000003   0.000000
    20  H    0.000025  -0.000049  -0.000286  -0.000006  -0.003912  -0.000011
    21  H   -0.000000  -0.000004   0.000127   0.000045  -0.000199  -0.000000
    22  H   -0.000004   0.000002   0.000013  -0.000001  -0.000071   0.000000
    23  H   -0.000053  -0.000006  -0.000135  -0.000006   0.000787   0.000000
    24  H   -0.000150   0.002183  -0.011666   0.100700   0.001648  -0.000181
               7          8          9         10         11         12
     1  N    0.148991  -0.000150   0.350238  -0.026766  -0.026678   0.352711
     2  C   -0.033914   0.003702  -0.018266   0.413301   0.408490  -0.030345
     3  P   -0.015807  -0.007360  -0.000410  -0.024982  -0.025746   0.007908
     4  O    0.025956   0.001498  -0.001509  -0.001045   0.001593  -0.000263
     5  O    0.242554   0.001053   0.000256   0.002473  -0.002761  -0.000756
     6  O    0.002464   0.291286  -0.000009   0.002064   0.002445  -0.000111
     7  Mg  10.414804  -0.000408  -0.008870   0.005058   0.001860  -0.014308
     8  H   -0.000408   0.332868   0.000011  -0.000065  -0.000414   0.000014
     9  H   -0.008870   0.000011   0.395999  -0.006120   0.002484  -0.014002
    10  H    0.005058  -0.000065  -0.006120   0.487880  -0.015155  -0.003653
    11  H    0.001860  -0.000414   0.002484  -0.015155   0.491648  -0.008123
    12  H   -0.014308   0.000014  -0.014002  -0.003653  -0.008123   0.429684
    13  N    0.133826   0.000003  -0.000002  -0.000001  -0.000007  -0.000054
    14  C   -0.028883  -0.000002  -0.000050  -0.000001   0.000003  -0.000012
    15  P   -0.015589  -0.000003  -0.000236   0.000057   0.000018  -0.000101
    16  O    0.011609  -0.000011  -0.000016   0.000017   0.000007  -0.000005
    17  O    0.204375   0.000003  -0.002279  -0.000078  -0.000063   0.000391
    18  O    0.002413   0.000000  -0.000004  -0.000000   0.000000   0.000000
    19  H   -0.000168  -0.000000  -0.000001  -0.000000  -0.000000  -0.000000
    20  H   -0.007735  -0.000000   0.000003   0.000000   0.000000   0.000001
    21  H    0.003817  -0.000000   0.000000  -0.000000   0.000000  -0.000000
    22  H    0.001018   0.000000   0.000002   0.000000  -0.000000   0.000000
    23  H   -0.011182  -0.000000   0.000000  -0.000000   0.000000   0.000001
    24  H    0.002276   0.000162  -0.000080  -0.000016  -0.000087   0.000031
              13         14         15         16         17         18
     1  N   -0.003375   0.000004   0.000645   0.000005  -0.020773  -0.000006
     2  C   -0.000117  -0.000119  -0.000795  -0.000359  -0.001764   0.000002
     3  P    0.001078  -0.001154   0.003496   0.000595  -0.005224   0.000030
     4  O   -0.000085  -0.000587   0.001214  -0.065783  -0.002803  -0.000049
     5  O   -0.026257  -0.003279  -0.003247  -0.001913  -0.004593   0.000011
     6  O   -0.000011   0.000002   0.000041  -0.000058   0.000005  -0.000000
     7  Mg   0.133826  -0.028883  -0.015589   0.011609   0.204375   0.002413
     8  H    0.000003  -0.000002  -0.000003  -0.000011   0.000003   0.000000
     9  H   -0.000002  -0.000050  -0.000236  -0.000016  -0.002279  -0.000004
    10  H   -0.000001  -0.000001   0.000057   0.000017  -0.000078  -0.000000
    11  H   -0.000007   0.000003   0.000018   0.000007  -0.000063   0.000000
    12  H   -0.000054  -0.000012  -0.000101  -0.000005   0.000391   0.000000
    13  N    6.689255   0.174157  -0.043265   0.000185  -0.022168   0.001630
    14  C    0.174157   4.982030   0.343404  -0.021837  -0.021510  -0.032807
    15  P   -0.043265   0.343404  12.709371   0.398249   0.417776   0.407284
    16  O    0.000185  -0.021837   0.398249   7.961518  -0.028337  -0.026892
    17  O   -0.022168  -0.021510   0.417776  -0.028337   8.064839  -0.020809
    18  O    0.001630  -0.032807   0.407284  -0.026892  -0.020809   7.851747
    19  H   -0.000159   0.003505  -0.007022   0.001732   0.000526   0.293867
    20  H    0.352010  -0.018359   0.001247  -0.001151   0.000267  -0.000025
    21  H   -0.027163   0.413166  -0.024762  -0.000245   0.002027   0.001679
    22  H   -0.025965   0.412274  -0.028086   0.001316  -0.002044   0.002256
    23  H    0.352274  -0.031083   0.008158  -0.000247  -0.000773  -0.000089
    24  H   -0.000007   0.001416  -0.009308   0.240209   0.001821  -0.000315
              19         20         21         22         23         24
     1  N    0.000003   0.000025  -0.000000  -0.000004  -0.000053  -0.000150
     2  C   -0.000001  -0.000049  -0.000004   0.000002  -0.000006   0.002183
     3  P   -0.000004  -0.000286   0.000127   0.000013  -0.000135  -0.011666
     4  O    0.000010  -0.000006   0.000045  -0.000001  -0.000006   0.100700
     5  O    0.000003  -0.003912  -0.000199  -0.000071   0.000787   0.001648
     6  O    0.000000  -0.000011  -0.000000   0.000000   0.000000  -0.000181
     7  Mg  -0.000168  -0.007735   0.003817   0.001018  -0.011182   0.002276
     8  H   -0.000000  -0.000000  -0.000000   0.000000  -0.000000   0.000162
     9  H   -0.000001   0.000003   0.000000   0.000002   0.000000  -0.000080
    10  H   -0.000000   0.000000  -0.000000   0.000000  -0.000000  -0.000016
    11  H   -0.000000   0.000000   0.000000  -0.000000   0.000000  -0.000087
    12  H   -0.000000   0.000001  -0.000000   0.000000   0.000001   0.000031
    13  N   -0.000159   0.352010  -0.027163  -0.025965   0.352274  -0.000007
    14  C    0.003505  -0.018359   0.413166   0.412274  -0.031083   0.001416
    15  P   -0.007022   0.001247  -0.024762  -0.028086   0.008158  -0.009308
    16  O    0.001732  -0.001151  -0.000245   0.001316  -0.000247   0.240209
    17  O    0.000526   0.000267   0.002027  -0.002044  -0.000773   0.001821
    18  O    0.293867  -0.000025   0.001679   0.002256  -0.000089  -0.000315
    19  H    0.321266   0.000012  -0.000173  -0.000318   0.000015   0.000198
    20  H    0.000012   0.384856  -0.006057   0.001943  -0.014072  -0.000107
    21  H   -0.000173  -0.006057   0.476209  -0.013238  -0.002575  -0.000087
    22  H   -0.000318   0.001943  -0.013238   0.481912  -0.008748  -0.000078
    23  H    0.000015  -0.014072  -0.002575  -0.008748   0.426553   0.000030
    24  H    0.000198  -0.000107  -0.000087  -0.000078   0.000030   0.250251
          Atomic-Atomic Spin Densities.
               1          2          3          4          5          6
     1  N    0.000000   0.000000   0.000000   0.000000   0.000000   0.000000
     2  C    0.000000   0.000000   0.000000   0.000000   0.000000   0.000000
     3  P    0.000000   0.000000   0.000000   0.000000   0.000000   0.000000
     4  O    0.000000   0.000000   0.000000   0.000000   0.000000   0.000000
     5  O    0.000000   0.000000   0.000000   0.000000   0.000000   0.000000
     6  O    0.000000   0.000000   0.000000   0.000000   0.000000   0.000000
     7  Mg   0.000000   0.000000   0.000000   0.000000   0.000000   0.000000
     8  H    0.000000   0.000000   0.000000   0.000000   0.000000   0.000000
     9  H    0.000000   0.000000   0.000000   0.000000   0.000000   0.000000
    10  H    0.000000   0.000000   0.000000   0.000000   0.000000   0.000000
    11  H    0.000000   0.000000   0.000000   0.000000   0.000000   0.000000
    12  H    0.000000   0.000000   0.000000   0.000000   0.000000   0.000000
    13  N    0.000000   0.000000   0.000000   0.000000   0.000000   0.000000
    14  C    0.000000   0.000000   0.000000   0.000000   0.000000   0.000000
    15  P    0.000000   0.000000   0.000000   0.000000   0.000000   0.000000
    16  O    0.000000   0.000000   0.000000   0.000000   0.000000   0.000000
    17  O    0.000000   0.000000   0.000000   0.000000   0.000000   0.000000
    18  O    0.000000   0.000000   0.000000   0.000000   0.000000   0.000000
    19  H    0.000000   0.000000   0.000000   0.000000   0.000000   0.000000
    20  H    0.000000   0.000000   0.000000   0.000000   0.000000   0.000000
    21  H    0.000000   0.000000   0.000000   0.000000   0.000000   0.000000
    22  H    0.000000   0.000000   0.000000   0.000000   0.000000   0.000000
    23  H    0.000000   0.000000   0.000000   0.000000   0.000000   0.000000
    24  H    0.000000   0.000000   0.000000   0.000000   0.000000   0.000000
               7          8          9         10         11         12
     1  N    0.000000   0.000000   0.000000   0.000000   0.000000   0.000000
     2  C    0.000000   0.000000   0.000000   0.000000   0.000000   0.000000
     3  P    0.000000   0.000000   0.000000   0.000000   0.000000   0.000000
     4  O    0.000000   0.000000   0.000000   0.000000   0.000000   0.000000
     5  O    0.000000   0.000000   0.000000   0.000000   0.000000   0.000000
     6  O    0.000000   0.000000   0.000000   0.000000   0.000000   0.000000
     7  Mg   0.000000   0.000000   0.000000   0.000000   0.000000   0.000000
     8  H    0.000000   0.000000   0.000000   0.000000   0.000000   0.000000
     9  H    0.000000   0.000000   0.000000   0.000000   0.000000   0.000000
    10  H    0.000000   0.000000   0.000000   0.000000   0.000000   0.000000
    11  H    0.000000   0.000000   0.000000   0.000000   0.000000   0.000000
    12  H    0.000000   0.000000   0.000000   0.000000   0.000000   0.000000
    13  N    0.000000   0.000000   0.000000   0.000000   0.000000   0.000000
    14  C    0.000000   0.000000   0.000000   0.000000   0.000000   0.000000
    15  P    0.000000   0.000000   0.000000   0.000000   0.000000   0.000000
    16  O    0.000000   0.000000   0.000000   0.000000   0.000000   0.000000
    17  O    0.000000   0.000000   0.000000   0.000000   0.000000   0.000000
    18  O    0.000000   0.000000   0.000000   0.000000   0.000000   0.000000
    19  H    0.000000   0.000000   0.000000   0.000000   0.000000   0.000000
    20  H    0.000000   0.000000   0.000000   0.000000   0.000000   0.000000
    21  H    0.000000   0.000000   0.000000   0.000000   0.000000   0.000000
    22  H    0.000000   0.000000   0.000000   0.000000   0.000000   0.000000
    23  H    0.000000   0.000000   0.000000   0.000000   0.000000   0.000000
    24  H    0.000000   0.000000   0.000000   0.000000   0.000000   0.000000
              13         14         15         16         17         18
     1  N    0.000000   0.000000   0.000000   0.000000   0.000000   0.000000
     2  C    0.000000   0.000000   0.000000   0.000000   0.000000   0.000000
     3  P    0.000000   0.000000   0.000000   0.000000   0.000000   0.000000
     4  O    0.000000   0.000000   0.000000   0.000000   0.000000   0.000000
     5  O    0.000000   0.000000   0.000000   0.000000   0.000000   0.000000
     6  O    0.000000   0.000000   0.000000   0.000000   0.000000   0.000000
     7  Mg   0.000000   0.000000   0.000000   0.000000   0.000000   0.000000
     8  H    0.000000   0.000000   0.000000   0.000000   0.000000   0.000000
     9  H    0.000000   0.000000   0.000000   0.000000   0.000000   0.000000
    10  H    0.000000   0.000000   0.000000   0.000000   0.000000   0.000000
    11  H    0.000000   0.000000   0.000000   0.000000   0.000000   0.000000
    12  H    0.000000   0.000000   0.000000   0.000000   0.000000   0.000000
    13  N    0.000000   0.000000   0.000000   0.000000   0.000000   0.000000
    14  C    0.000000   0.000000   0.000000   0.000000   0.000000   0.000000
    15  P    0.000000   0.000000   0.000000   0.000000   0.000000   0.000000
    16  O    0.000000   0.000000   0.000000   0.000000   0.000000   0.000000
    17  O    0.000000   0.000000   0.000000   0.000000   0.000000   0.000000
    18  O    0.000000   0.000000   0.000000   0.000000   0.000000   0.000000
    19  H    0.000000   0.000000   0.000000   0.000000   0.000000   0.000000
    20  H    0.000000   0.000000   0.000000   0.000000   0.000000   0.000000
    21  H    0.000000   0.000000   0.000000   0.000000   0.000000   0.000000
    22  H    0.000000   0.000000   0.000000   0.000000   0.000000   0.000000
    23  H    0.000000   0.000000   0.000000   0.000000   0.000000   0.000000
    24  H    0.000000   0.000000   0.000000   0.000000   0.000000   0.000000
              19         20         21         22         23         24
     1  N    0.000000   0.000000   0.000000   0.000000   0.000000   0.000000
     2  C    0.000000   0.000000   0.000000   0.000000   0.000000   0.000000
     3  P    0.000000   0.000000   0.000000   0.000000   0.000000   0.000000
     4  O    0.000000   0.000000   0.000000   0.000000   0.000000   0.000000
     5  O    0.000000   0.000000   0.000000   0.000000   0.000000   0.000000
     6  O    0.000000   0.000000   0.000000   0.000000   0.000000   0.000000
     7  Mg   0.000000   0.000000   0.000000   0.000000   0.000000   0.000000
     8  H    0.000000   0.000000   0.000000   0.000000   0.000000   0.000000
     9  H    0.000000   0.000000   0.000000   0.000000   0.000000   0.000000
    10  H    0.000000   0.000000   0.000000   0.000000   0.000000   0.000000
    11  H    0.000000   0.000000   0.000000   0.000000   0.000000   0.000000
    12  H    0.000000   0.000000   0.000000   0.000000   0.000000   0.000000
    13  N    0.000000   0.000000   0.000000   0.000000   0.000000   0.000000
    14  C    0.000000   0.000000   0.000000   0.000000   0.000000   0.000000
    15  P    0.000000   0.000000   0.000000   0.000000   0.000000   0.000000
    16  O    0.000000   0.000000   0.000000   0.000000   0.000000   0.000000
    17  O    0.000000   0.000000   0.000000   0.000000   0.000000   0.000000
    18  O    0.000000   0.000000   0.000000   0.000000   0.000000   0.000000
    19  H    0.000000   0.000000   0.000000   0.000000   0.000000   0.000000
    20  H    0.000000   0.000000   0.000000   0.000000   0.000000   0.000000
    21  H    0.000000   0.000000   0.000000   0.000000   0.000000   0.000000
    22  H    0.000000   0.000000   0.000000   0.000000   0.000000   0.000000
    23  H    0.000000   0.000000   0.000000   0.000000   0.000000   0.000000
    24  H    0.000000   0.000000   0.000000   0.000000   0.000000   0.000000
 Mulliken charges and spin densities:
               1          2
     1  N   -0.556577   0.000000
     2  C   -0.187600   0.000000
     3  P    0.820762   0.000000
     4  O   -0.581136   0.000000
     5  O   -0.600750   0.000000
     6  O   -0.493466   0.000000
     7  Mg   0.935844   0.000000
     8  H    0.377815   0.000000
     9  H    0.302861   0.000000
    10  H    0.167030   0.000000
    11  H    0.170484   0.000000
    12  H    0.280991   0.000000
    13  N   -0.555783   0.000000
    14  C   -0.170278   0.000000
    15  P    0.841453   0.000000
    16  O   -0.468587   0.000000
    17  O   -0.558814   0.000000
    18  O   -0.479924   0.000000
    19  H    0.386710   0.000000
    20  H    0.311405   0.000000
    21  H    0.177434   0.000000
    22  H    0.177817   0.000000
    23  H    0.281149   0.000000
    24  H    0.421157   0.000000
 Sum of Mulliken charges =   1.00000   0.00000
 Mulliken charges and spin densities with hydrogens summed into heavy atoms:
               1          2
     1  N    0.027276   0.000000
     2  C    0.149914   0.000000
     3  P    0.820762   0.000000
     4  O   -0.581136   0.000000
     5  O   -0.600750   0.000000
     6  O   -0.115651   0.000000
     7  Mg   0.935844   0.000000
    13  N    0.036772   0.000000
    14  C    0.184974   0.000000
    15  P    0.841453   0.000000
    16  O   -0.047430   0.000000
    17  O   -0.558814   0.000000
    18  O   -0.093214   0.000000
 Electronic spatial extent (au):  <R**2>=           3078.3827
 Charge=              1.0000 electrons
 Dipole moment (field-independent basis, Debye):
    X=             -1.4512    Y=              6.3231    Z=             -0.3840  Tot=              6.4988
 Quadrupole moment (field-independent basis, Debye-Ang):
   XX=            -60.0927   YY=            -65.2621   ZZ=            -75.3585
   XY=              1.3297   XZ=            -11.1708   YZ=              0.3056
 Traceless Quadrupole moment (field-independent basis, Debye-Ang):
   XX=              6.8117   YY=              1.6424   ZZ=             -8.4541
   XY=              1.3297   XZ=            -11.1708   YZ=              0.3056
 Octapole moment (field-independent basis, Debye-Ang**2):
  XXX=             -8.5021  YYY=             38.7962  ZZZ=             -3.5398  XYY=              1.6818
  XXY=            -19.1676  XXZ=             -8.9519  XZZ=             -7.9518  YZZ=              8.8720
  YYZ=              1.6809  XYZ=            -45.3296
 Hexadecapole moment (field-independent basis, Debye-Ang**3):
 XXXX=          -2159.1976 YYYY=           -584.1894 ZZZZ=           -492.1052 XXXY=              5.5869
 XXXZ=            -14.9347 YYYX=             -8.1948 YYYZ=             -4.0683 ZZZX=            -33.2694
 ZZZY=              4.9710 XXYY=           -356.4442 XXZZ=           -411.1944 YYZZ=           -151.3383
 XXYZ=             11.3854 YYXZ=             24.8158 ZZXY=             10.3018
 N-N= 1.349841330912D+03 E-N=-6.300771599771D+03  KE= 1.521253994183D+03
                          Isotropic Fermi Contact Couplings
        Atom                 a.u.       MegaHertz       Gauss      10(-4) cm-1
     1  N(14)              0.00000       0.00000       0.00000       0.00000
     2  C(13)              0.00000       0.00000       0.00000       0.00000
     3  P(31)              0.00000       0.00000       0.00000       0.00000
     4  O(17)              0.00000      -0.00000      -0.00000      -0.00000
     5  O(17)              0.00000      -0.00000      -0.00000      -0.00000
     6  O(17)              0.00000      -0.00000      -0.00000      -0.00000
     7  Mg(25)             0.00000      -0.00000      -0.00000      -0.00000
     8  H(1)               0.00000       0.00000       0.00000       0.00000
     9  H(1)               0.00000       0.00000       0.00000       0.00000
    10  H(1)               0.00000       0.00000       0.00000       0.00000
    11  H(1)               0.00000       0.00000       0.00000       0.00000
    12  H(1)               0.00000       0.00000       0.00000       0.00000
    13  N(14)              0.00000       0.00000       0.00000       0.00000
    14  C(13)              0.00000       0.00000       0.00000       0.00000
    15  P(31)              0.00000       0.00000       0.00000       0.00000
    16  O(17)              0.00000      -0.00000      -0.00000      -0.00000
    17  O(17)              0.00000      -0.00000      -0.00000      -0.00000
    18  O(17)              0.00000      -0.00000      -0.00000      -0.00000
    19  H(1)               0.00000       0.00000       0.00000       0.00000
    20  H(1)               0.00000       0.00000       0.00000       0.00000
    21  H(1)               0.00000       0.00000       0.00000       0.00000
    22  H(1)               0.00000       0.00000       0.00000       0.00000
    23  H(1)               0.00000       0.00000       0.00000       0.00000
    24  H(1)               0.00000       0.00000       0.00000       0.00000
 --------------------------------------------------------
       Center         ----  Spin Dipole Couplings  ----
                      3XX-RR        3YY-RR        3ZZ-RR
 --------------------------------------------------------
     1   Atom        0.000000      0.000000      0.000000
     2   Atom        0.000000      0.000000      0.000000
     3   Atom        0.000000      0.000000      0.000000
     4   Atom        0.000000      0.000000      0.000000
     5   Atom        0.000000      0.000000      0.000000
     6   Atom        0.000000      0.000000      0.000000
     7   Atom        0.000000      0.000000      0.000000
     8   Atom        0.000000      0.000000      0.000000
     9   Atom        0.000000      0.000000      0.000000
    10   Atom        0.000000      0.000000      0.000000
    11   Atom        0.000000      0.000000      0.000000
    12   Atom        0.000000      0.000000      0.000000
    13   Atom        0.000000      0.000000      0.000000
    14   Atom        0.000000      0.000000      0.000000
    15   Atom        0.000000      0.000000      0.000000
    16   Atom        0.000000      0.000000      0.000000
    17   Atom        0.000000      0.000000      0.000000
    18   Atom        0.000000      0.000000      0.000000
    19   Atom        0.000000      0.000000      0.000000
    20   Atom        0.000000      0.000000      0.000000
    21   Atom        0.000000      0.000000      0.000000
    22   Atom        0.000000      0.000000      0.000000
    23   Atom        0.000000      0.000000      0.000000
    24   Atom        0.000000      0.000000      0.000000
 --------------------------------------------------------
                        XY            XZ            YZ
 --------------------------------------------------------
     1   Atom        0.000000      0.000000      0.000000
     2   Atom        0.000000      0.000000      0.000000
     3   Atom        0.000000      0.000000      0.000000
     4   Atom        0.000000      0.000000      0.000000
     5   Atom        0.000000      0.000000      0.000000
     6   Atom        0.000000      0.000000      0.000000
     7   Atom        0.000000      0.000000      0.000000
     8   Atom        0.000000      0.000000      0.000000
     9   Atom        0.000000      0.000000      0.000000
    10   Atom        0.000000      0.000000      0.000000
    11   Atom        0.000000      0.000000      0.000000
    12   Atom        0.000000      0.000000      0.000000
    13   Atom        0.000000      0.000000      0.000000
    14   Atom        0.000000      0.000000      0.000000
    15   Atom        0.000000      0.000000      0.000000
    16   Atom        0.000000      0.000000      0.000000
    17   Atom        0.000000      0.000000      0.000000
    18   Atom        0.000000      0.000000      0.000000
    19   Atom        0.000000      0.000000      0.000000
    20   Atom        0.000000      0.000000      0.000000
    21   Atom        0.000000      0.000000      0.000000
    22   Atom        0.000000      0.000000      0.000000
    23   Atom        0.000000      0.000000      0.000000
    24   Atom        0.000000      0.000000      0.000000
 --------------------------------------------------------


 ---------------------------------------------------------------------------------
              Anisotropic Spin Dipole Couplings in Principal Axis System
 ---------------------------------------------------------------------------------

       Atom             a.u.   MegaHertz   Gauss  10(-4) cm-1        Axes

              Baa     0.0000     0.000     0.000     0.000  1.0000  0.0000  0.0000
     1 N(14)  Bbb     0.0000     0.000     0.000     0.000 -0.0000  1.0000  0.0000
              Bcc     0.0000     0.000     0.000     0.000  0.0000  0.0000  1.0000
 
              Baa     0.0000     0.000     0.000     0.000  1.0000  0.0000  0.0000
     2 C(13)  Bbb     0.0000     0.000     0.000     0.000 -0.0000  1.0000  0.0000
              Bcc     0.0000     0.000     0.000     0.000  0.0000  0.0000  1.0000
 
              Baa     0.0000     0.000     0.000     0.000  1.0000  0.0000  0.0000
     3 P(31)  Bbb     0.0000     0.000     0.000     0.000 -0.0000  1.0000  0.0000
              Bcc     0.0000     0.000     0.000     0.000  0.0000  0.0000  1.0000
 
              Baa     0.0000    -0.000    -0.000    -0.000  1.0000  0.0000  0.0000
     4 O(17)  Bbb     0.0000    -0.000    -0.000    -0.000 -0.0000  1.0000  0.0000
              Bcc     0.0000    -0.000    -0.000    -0.000  0.0000  0.0000  1.0000
 
              Baa     0.0000    -0.000    -0.000    -0.000  1.0000  0.0000  0.0000
     5 O(17)  Bbb     0.0000    -0.000    -0.000    -0.000 -0.0000  1.0000  0.0000
              Bcc     0.0000    -0.000    -0.000    -0.000  0.0000  0.0000  1.0000
 
              Baa     0.0000    -0.000    -0.000    -0.000  1.0000  0.0000  0.0000
     6 O(17)  Bbb     0.0000    -0.000    -0.000    -0.000 -0.0000  1.0000  0.0000
              Bcc     0.0000    -0.000    -0.000    -0.000  0.0000  0.0000  1.0000
 
              Baa     0.0000    -0.000    -0.000    -0.000  1.0000  0.0000  0.0000
[...]
 01010693,-0.00719332,-0.00455886,-0.00269620,-0.00803955,0.00053874,0.
 00476146,0.00177087,0.00131732,-0.00135833,-0.00066604,-0.00009530,0.0
 0044335,0.00061840,-0.00031771,0.00007707,-0.00009967,0.00093089,-0.00
 103546,0.00023813,0.00017309,0.00013000,0.00350012,0.00181153,0.004615
 07,-0.00190382,-0.00747294,0.00872174,-0.14263956,-0.02376338,0.123701
 78,0.42862052,0.00064845,0.00007048,0.00016767,-0.00006212,0.00036920,
 0.00061294,-0.00094919,-0.00572477,-0.00682368,0.01802495,0.00429222,0
 .00292149,-0.00218716,0.00315271,0.00130802,0.00174389,0.00160046,0.00
 070932,-0.00227674,-0.00529641,-0.00068988,-0.00024395,-0.00043471,0.0
 0033243,-0.00051226,0.00039934,-0.00007853,-0.00006384,0.00019294,-0.0
 0016040,0.00010891,-0.00012301,0.00010012,0.00003745,0.00000612,-0.000
 08397,-0.00092846,0.00163986,-0.00067486,0.00997515,0.00814793,-0.0104
 0220,-0.02315298,-0.08054349,0.06116371,-0.05320577,0.09877023,-0.0021
 4563,-0.00001686,0.00130112,0.00199776,0.00171372,0.00102882,-0.005031
 19,-0.00690384,-0.01713484,0.02989439,-0.00530571,0.01449789,-0.003955
 05,0.00244667,0.00704739,0.00260807,0.00151189,0.00232557,0.01078394,0
 .00202375,0.00021991,-0.00096283,-0.00040515,0.00023302,0.00101933,-0.
 00065646,-0.00051576,-0.00047251,0.00022392,0.00000018,0.00004664,-0.0
 0058513,0.00064975,-0.00018864,-0.00015486,0.00004360,-0.00278507,-0.0
 0112264,-0.00121076,0.01372820,0.01111512,-0.00728961,0.12695929,0.063
 99728,-0.32393278,-0.18784710,-0.08406842,0.37952667,-0.00890856,0.003
 04569,-0.00264436,0.00149436,0.00127393,-0.00112343,0.00483121,0.00070
 488,-0.00735222,0.00244012,-0.00278170,0.00536488,-0.00507516,-0.00386
 276,0.00252709,-0.00181898,-0.00104332,0.00207687,-0.04575878,-0.02017
 472,-0.02175733,0.00013289,0.00023291,-0.00049858,0.00084758,-0.003345
 60,-0.00088454,-0.00043030,-0.00012235,0.00036694,-0.00018364,-0.00017
 846,0.00027229,-0.00161655,0.00018780,0.00115751,0.00555340,-0.0049028
 3,0.00128489,-0.00433589,0.01211704,-0.01536966,-0.18850616,0.14505825
 ,-0.12251535,0.01821000,-0.00118369,0.00005874,0.25302492,0.00507860,-
 0.00001445,0.00018906,-0.00120793,-0.00039957,0.00128111,0.00192037,-0
 .00569084,-0.00045960,-0.00306915,0.00331129,-0.00139269,-0.00414260,0
 .00330886,0.00144941,-0.00022932,0.00079615,-0.00014838,-0.02351104,-0
 .02831862,-0.01478910,0.00002925,-0.00000774,0.00005313,-0.00233987,0.
 00189768,0.00041728,0.00013690,0.00029702,-0.00039939,0.00032062,0.000
 16123,-0.00029265,0.00066220,0.00018936,-0.00025391,-0.00071406,-0.001
 85919,-0.00238142,0.01584371,-0.01602856,0.01629813,0.14693817,-0.2550
 5954,0.14883654,0.00306712,0.00455459,0.01558575,-0.14555033,0.2915179
 6,-0.00556172,0.00020027,0.00204219,0.00140352,0.00166819,-0.00033303,
 -0.00483255,-0.00136557,-0.01021370,0.01023480,-0.00016147,0.00331317,
 -0.00080448,-0.00028764,0.00529313,0.00111246,0.00018525,0.00175979,-0
 .01975328,-0.01270106,-0.02445950,-0.00052100,-0.00019034,-0.00000928,
 0.00093747,-0.00118589,-0.00140390,-0.00062569,-0.00010681,0.00033218,
 -0.00010840,-0.00031513,0.00042203,-0.00018158,-0.00004097,0.00023959,
 0.00115967,-0.00812790,0.00254986,-0.00342994,-0.00732781,0.00296424,-
 0.12403572,0.14543869,-0.20164729,-0.00617311,0.02953385,-0.02558238,0
 .17668594,-0.15697640,0.23782196,-0.00146204,0.00071180,-0.00032827,-0
 .00016615,0.00016784,-0.00047580,0.00493252,0.00071582,0.00097568,-0.0
 0669872,0.00131708,-0.00060983,-0.00229482,-0.00030155,0.00002624,-0.0
 0185193,-0.00077745,0.00051698,0.00431352,0.00164170,0.00336445,0.0003
 8481,0.00021100,-0.00041373,0.00052980,-0.00085819,-0.00004258,-0.0000
 2793,-0.00001623,0.00006859,-0.00003262,0.00007511,-0.00008518,-0.0001
 6232,-0.00003056,0.00023737,0.00080477,-0.00298689,-0.00288294,-0.0064
 4861,0.00153127,-0.00046249,-0.30849543,-0.08080209,-0.04685476,-0.031
 81350,-0.00680053,0.00946832,-0.02029279,-0.00394521,-0.01282428,0.392
 24601,0.00023021,0.00030213,-0.00008726,-0.00028217,-0.00004854,0.0000
 4507,0.00140678,-0.00055393,0.00058419,-0.00331853,0.00118649,-0.00049
 199,-0.00084078,0.00091396,0.00037178,-0.00052185,-0.00006247,0.000054
 21,0.00057968,-0.00329784,-0.00039851,0.00011587,0.00002697,-0.0001172
 1,-0.00024258,-0.00005967,0.00000810,0.00000907,0.00004597,-0.00004841
 ,0.00003416,0.00004547,-0.00006375,0.00001504,-0.00003524,-0.00002966,
 -0.00075462,-0.00276655,-0.00501721,-0.01666968,0.00059030,-0.00430217
 ,-0.08972848,-0.08778310,-0.03189766,-0.01642715,0.00996883,0.00655410
 ,0.00974111,0.01359319,0.00855680,0.14600247,0.15733448,-0.00120281,0.
 00032114,0.00019234,0.00048846,0.00050509,0.00006354,-0.00056187,-0.00
 150686,-0.00473443,0.00489612,-0.00099576,0.00229015,-0.00155468,0.000
 53116,0.00240718,0.00012516,0.00016045,0.00085062,0.00410523,0.0002437
 6,0.00039451,-0.00015810,-0.00005680,-0.00007527,0.00040409,-0.0004945
 0,-0.00020176,-0.00015545,0.00004908,0.00002879,-0.00000287,-0.0001239
 5,0.00014603,-0.00013656,-0.00004057,0.00009585,-0.00166358,-0.0045278
 5,-0.00378022,-0.01707182,-0.00601841,0.00033987,-0.07652199,-0.036195
 87,-0.08675566,0.03287654,0.00632723,0.00254015,-0.02208415,0.00030915
 ,0.00014781,0.14765192,0.22060654,0.50599695,0.00006464,-0.00007366,0.
 00007478,0.00012025,0.00003908,0.00011074,-0.00128653,-0.00038520,-0.0
 0094051,0.00199880,-0.00019449,0.00048575,0.00031194,0.00011594,0.0003
 8568,0.00049739,0.00021841,-0.00000026,-0.00038072,-0.00010389,-0.0005
 9158,-0.00012791,-0.00006625,0.00009103,-0.00008984,0.00007438,-0.0000
 6549,-0.00003181,0.00000784,-0.00000982,0.00000584,-0.00003241,0.00004
 389,-0.00000583,0.00001294,-0.00003185,0.00011144,0.00000163,-0.000370
 97,-0.00209172,-0.00058631,0.00099002,-0.01783287,-0.01794807,-0.03226
 418,0.00519148,0.00248790,0.00167643,-0.00196438,0.00083927,0.00116333
 ,-0.03127601,-0.03208299,-0.05989907,0.04927559,0.00019283,-0.00016543
 ,0.00009336,0.00006338,0.00001203,0.00006825,-0.00076830,-0.00002790,-
 0.00043359,0.00146028,-0.00043912,0.00018062,0.00027511,0.00000690,0.0
 0014165,0.00025025,0.00006716,0.00000603,-0.00033330,-0.00027798,-0.00
 051866,-0.00007025,-0.00000726,0.00004504,-0.00001632,0.00017105,0.000
 04036,0.00001067,0.00000240,-0.00000391,0.00000235,-0.00002292,0.00002
 088,0.00003382,0.00000283,-0.00002039,0.00009048,-0.00093026,-0.000749
 04,-0.00405636,0.00085181,-0.00067981,-0.00688790,-0.00623096,-0.01054
 218,0.00540877,-0.00044879,-0.00028272,0.00530329,-0.00104357,0.001847
 92,-0.04566010,-0.08603420,-0.18371375,0.04683663,0.09327630,0.0002852
 8,-0.00008004,-0.00005789,-0.00004971,-0.00008014,0.00006331,-0.000553
 94,0.00005274,0.00048918,0.00055471,-0.00016546,-0.00027089,0.00045656
 ,-0.00007344,-0.00033782,0.00024306,0.00010604,-0.00020154,-0.00105948
 ,-0.00008845,-0.00021769,-0.00002371,-0.00001971,0.00008829,-0.0001377
 2,0.00012116,0.00003654,0.00002356,-0.00000692,-0.00000927,0.00000583,
 0.00000640,-0.00000855,0.00000830,0.00001667,-0.00002057,0.00016755,0.
 00071200,0.00107198,0.00169551,0.00053438,0.00111161,-0.00231707,-0.00
 338990,-0.00252765,0.00372707,0.00119004,-0.00393751,0.00266362,0.0001
 2931,0.00140558,-0.09426277,-0.19354733,-0.41967597,0.08920464,0.19391
 762,0.42263969,-0.00029171,-0.00024324,0.00027585,0.00038054,-0.000354
 86,-0.00053898,-0.00123153,0.00269947,0.00387339,-0.00109300,-0.000626
 92,-0.00122606,0.00011550,-0.00289102,-0.00195165,0.00044398,-0.000182
 99,-0.00068293,0.00453282,0.00393523,-0.00277076,0.00000949,-0.0000391
 3,0.00014757,0.00014411,-0.00006118,-0.00002906,-0.00000041,-0.0002341
 6,0.00019724,-0.00008515,0.00004174,-0.00001042,0.00000968,-0.00004426
 ,-0.00005374,-0.16184252,-0.12976249,0.09517894,-0.02183194,-0.0181159
 1,0.01245839,-0.00008631,-0.00111707,-0.00138451,-0.00122151,0.0002083
 2,0.00078569,-0.00068180,0.00096872,0.00130803,0.00006679,0.00019884,0
 .00009046,0.00006446,-0.00006210,-0.00007070,0.18781172,0.00003374,0.0
 0027451,-0.00014652,-0.00020285,0.00039165,0.00037174,0.00150093,-0.00
 206361,-0.00337148,0.00033010,0.00049919,0.00099245,-0.00394605,0.0023
 6177,0.00318318,-0.00077597,-0.00018139,0.00091344,-0.00146837,-0.0090
 3661,0.00349665,-0.00002952,0.00016389,-0.00014116,-0.00007425,-0.0000
 1003,0.00001723,-0.00001593,0.00019151,-0.00013634,0.00006556,-0.00003
 359,0.00001898,-0.00000144,0.00003271,0.00006592,-0.16594684,-0.189808
 52,0.11834100,0.00278791,-0.00336193,0.00225451,-0.00230345,-0.0013504
 9,0.00093907,0.00070613,0.00022127,-0.00004260,0.00073842,-0.00035248,
 -0.00125619,0.00018939,-0.00009735,-0.00033593,-0.00008540,-0.00006933
 ,-0.00003604,0.15278805,0.19030706,0.00004493,0.00005112,-0.00015103,-
 0.00016733,0.00016188,0.00022463,0.00100248,-0.00116714,-0.00104197,-0
 .00004987,0.00032732,0.00007842,0.00006449,0.00098501,-0.00123271,-0.0
 0020022,0.00008012,0.00006019,-0.00046257,0.00190799,0.00146032,0.0000
 7367,-0.00003040,-0.00005045,-0.00001833,-0.00000186,0.00001663,0.0000
 0330,0.00008855,-0.00007932,0.00002016,0.00000053,-0.00000264,0.000007
 04,0.00004124,0.00003384,0.10935616,0.10224654,-0.14483437,-0.01617423
 ,-0.01406866,0.01080421,-0.00292090,-0.00006206,0.00294728,0.00123836,
 0.00089682,-0.00085766,0.00050319,-0.00043890,-0.00053482,0.00002918,-
 0.00054267,-0.00094251,-0.00009134,-0.00014946,-0.00000463,-0.10761170
 ,-0.11307624,0.15190788,-0.00000911,0.00006154,0.00014382,0.00005776,0
 .00006277,0.00002962,-0.00023212,-0.00020151,-0.00065607,0.00056476,-0
 .00004546,0.00027983,-0.00026109,0.00007703,0.00079415,0.00002206,0.00
 000030,0.00014627,0.00002891,-0.00137234,-0.00137050,-0.00004569,0.000
 01411,-0.00000289,-0.00005334,0.00002532,-0.00000939,-0.00002241,0.000
 00511,0.00000285,0.00000870,-0.00001621,0.00001280,0.00001212,-0.00002
 859,-0.00001135,-0.01615018,0.01955361,-0.01968716,-0.05950215,0.04969
 716,-0.03409990,-0.00192338,0.00650665,0.00042761,0.00068211,-0.001196
 28,-0.00037209,0.00083646,0.00072453,0.00015941,-0.00035563,-0.0000958
 4,0.00005568,0.00013745,0.00023252,-0.00003974,0.00176475,0.00111688,-
 0.00051977,0.06865044,0.00020415,0.00000928,0.00003592,-0.00007788,-0.
 00001679,0.00005192,0.00009389,-0.00020737,0.00018298,-0.00037866,0.00
 020721,-0.00018497,-0.00009711,0.00023433,0.00006643,-0.00004450,0.000
 01903,-0.00002586,-0.00088092,-0.00109992,-0.00072072,0.00001327,0.000
 00431,-0.00000060,-0.00016598,0.00012539,0.00001677,0.00000908,0.00001
 120,-0.00001742,0.00001515,0.00001110,-0.00001932,0.00003748,0.0000020
 3,-0.00002019,-0.00482390,0.01005586,-0.00785984,0.05454956,-0.2308454
 8,0.12073541,0.00373265,-0.01350217,0.01546815,-0.00125539,0.00215906,
 -0.00063115,0.00344538,-0.00420089,-0.00166040,-0.00125498,0.00037444,
 -0.00200515,-0.00027713,-0.00015683,-0.00017039,0.00082664,0.00153478,
 0.00013005,-0.05608695,0.23875780,0.00017771,0.00003535,0.00005956,-0.
 00006437,0.00002104,0.00007570,0.00007047,-0.00042695,-0.00019253,-0.0
 0008055,0.00020846,-0.00002229,-0.00027168,0.00041416,0.00037103,-0.00
 004777,0.00004843,0.00004296,-0.00046428,-0.00185575,-0.00116629,0.000
 00530,-0.00000313,-0.00000699,-0.00017003,0.00011277,0.00001034,-0.000
 00030,0.00002103,-0.00002182,0.00002054,0.00000255,-0.00001174,0.00003
 766,-0.00000276,-0.00001711,-0.01048803,0.01123147,-0.01067023,-0.0338
 5006,0.11031613,-0.11650725,0.00307167,-0.00960008,0.01187908,-0.00069
 276,0.00174537,-0.00053624,0.00421765,-0.00580560,-0.00039183,-0.00052
 808,0.00049939,-0.00131095,-0.00031135,0.00013017,-0.00008837,0.001280
 47,-0.00019968,0.00081766,0.04356824,-0.12421448,0.12671811,0.00009203
 ,0.00002381,-0.00000072,-0.00002883,0.00002382,0.00006166,-0.00006986,
 -0.00031894,-0.00035213,0.00027446,0.00007956,0.00012581,-0.00021611,0
 .00038714,0.00037472,0.00001879,0.00004911,0.00005668,-0.00059528,-0.0
 0102623,0.00002623,-0.00001838,-0.00000320,-0.00000079,-0.00006423,0.0
 0004601,0.00000502,-0.00000075,0.00002079,-0.00001951,0.00001240,-0.00
 000651,0.00000277,0.00000337,0.00000336,-0.00000273,-0.02378907,-0.007
 54721,0.01212392,-0.19586611,-0.04627700,0.12311147,-0.00392877,0.0016
 7633,0.00603125,0.00065294,-0.00019636,-0.00082500,0.00106495,-0.00000
 427,-0.00054329,-0.00093629,-0.00097476,-0.00191148,0.00025904,-0.0000
 1518,0.00004656,-0.00309622,0.00114304,-0.00326103,0.00707281,0.001761
 28,-0.00502952,0.21827772,-0.00006412,-0.00000227,0.00004897,0.0000565
 3,0.00005948,0.00003306,-0.00028765,-0.00020506,-0.00055126,0.00076636
 ,-0.00009025,0.00028354,-0.00009381,0.00017735,0.00032652,0.00008503,0
 .00005479,0.00007870,0.00021546,-0.00007559,-0.00054921,-0.00002938,-0
 .00001781,0.00000608,0.00001730,-0.00001215,-0.00001716,-0.00001621,0.
 00000816,-0.00000154,0.00000176,-0.00001757,0.00001863,0.00000016,-0.0
 0000638,-0.00000429,-0.00726656,-0.00285745,0.00259697,-0.03788611,-0.
 05508531,0.03385418,0.01669057,0.00705995,-0.01263039,0.00194601,-0.00
 314066,-0.00457969,-0.00204714,-0.00158410,0.00208862,-0.00076948,0.00
 013173,0.00187842,0.00027039,0.00034973,0.00001010,-0.00110353,0.00038
 440,-0.00126679,-0.01974016,-0.00388036,0.01618466,0.05135709,0.057866
 99,-0.00004620,0.00001996,0.00002685,0.00004557,0.00006492,0.00004484,
 -0.00029318,-0.00024970,-0.00066844,0.00082803,-0.00008584,0.00034049,
 -0.00018597,0.00027322,0.00051569,0.00008464,0.00005649,0.00010514,0.0
 0014256,-0.00038461,-0.00019676,-0.00004142,-0.00000999,0.00000715,0.0
 0000695,-0.00001033,-0.00001120,-0.00001465,0.00001415,-0.00000676,0.0
 0000480,-0.00001900,0.00002055,-0.00001167,-0.00000195,0.00000601,-0.0
 2181101,-0.00691781,0.01128142,0.13511719,0.04061611,-0.15340467,0.013
 05667,0.00763526,-0.01099800,0.00172946,-0.00337909,-0.00272541,-0.001
 29332,-0.00073115,0.00138326,-0.00129635,0.00019507,0.00139122,0.00004
 149,0.00015718,0.00000658,-0.00410412,-0.00031087,-0.00217263,0.010829
 29,0.00089622,-0.00859588,-0.13129090,-0.03779115,0.16146881,-0.000020
 77,0.00005199,-0.00012526,-0.00003889,0.00012861,0.00014106,0.00018596
 ,-0.00072127,-0.00102561,0.00030424,0.00009271,0.00024234,-0.00221558,
 0.00102127,0.00101050,-0.00016282,0.00000834,0.00025928,0.00020210,-0.
 00038383,0.00341928,-0.00002778,0.00003012,-0.00001721,0.00001119,-0.0
 0001028,-0.00000735,-0.00000040,0.00006323,-0.00005202,0.00001015,-0.0
 0000728,0.00001855,-0.00000315,0.00005235,0.00004094,-0.07844679,0.039
 99182,0.10283916,0.00236919,-0.01612587,-0.03137268,-0.00444943,0.0026
 7659,-0.00130222,0.00125969,-0.00023701,-0.00059771,0.00091888,0.00016
 876,0.00058893,-0.00081344,-0.00158791,-0.00112059,-0.00012966,-0.0002
 8211,0.00018780,-0.00547880,0.01407576,0.01938197,-0.00045724,-0.00017
 828,-0.00070690,0.00123141,-0.00053654,0.00011570,0.08632460,-0.000001
 88,-0.00004799,0.00020948,0.00002057,0.00007647,0.00003564,0.00000293,
 0.00012462,-0.00017717,0.00016583,-0.00000929,0.00009324,0.00040580,0.
 00020732,-0.00011081,0.00000291,-0.00004408,0.00000173,0.00032437,-0.0
 0104954,-0.00514606,0.00001298,-0.00000252,-0.00001386,-0.00004855,0.0
 0003323,-0.00002040,-0.00003158,-0.00000461,0.00000958,0.00000452,-0.0
 0000596,-0.00000050,0.00004640,-0.00005259,-0.00004973,0.04256072,-0.1
 2225083,-0.17468714,0.00271522,-0.00492995,-0.00237396,-0.00093168,0.0
 0014167,0.00010747,0.00054310,0.00004225,-0.00030100,-0.00027380,-0.00
 129517,-0.00003247,-0.00060749,-0.00057668,-0.00070895,-0.00009114,-0.
 00016550,0.00010825,-0.00657335,0.01009329,0.02430580,0.00053145,0.000
 50046,0.00118165,-0.00022619,0.00084138,-0.00006057,-0.03829575,0.1183
 8401,-0.00011593,0.00011284,-0.00008511,-0.00002970,0.00002948,-0.0000
 2308,0.00046732,-0.00030094,-0.00016621,-0.00021309,0.00008669,0.00005
 247,-0.00072778,0.00003194,0.00035338,-0.00017753,0.00001012,0.0001051
 7,0.00059558,-0.00026156,0.00164797,0.00002281,0.00000696,-0.00002339,
 0.00004785,-0.00005856,0.00000915,0.00000134,0.00001212,-0.00000394,-0
 .00000087,0.00000364,0.00000171,-0.00002429,0.00003081,0.00006156,0.08
 501234,-0.13912748,-0.30453844,0.00203484,-0.00899707,-0.01569342,-0.0
 0229432,0.00075124,-0.00091916,-0.00004732,0.00017941,0.00041387,0.000
 34547,0.00119834,0.00045531,0.00023369,-0.00006800,-0.00008952,-0.0000
 3435,-0.00012654,0.00007509,0.00490210,-0.01125794,-0.01618633,0.00032
 166,-0.00019195,-0.00062398,0.00123719,0.00035365,0.00249246,-0.091789
 78,0.15764534,0.33275914,-0.00226438,-0.00089900,0.00272994,0.00459979
 ,0.00373480,0.00341713,-0.02752657,-0.02214598,-0.04643046,0.04825326,
 -0.00569969,0.02425349,-0.00467851,0.00774807,0.01582833,0.01011318,0.
 00649112,0.00386881,0.01313604,0.00047021,-0.00267343,-0.00247820,-0.0
 0190404,0.00187045,0.00123462,-0.00009615,-0.00057742,-0.00091789,0.00
 058882,-0.00013072,0.00020884,-0.00154035,0.00165572,-0.00037781,-0.00
 024797,-0.00011555,-0.00318417,-0.00046250,-0.00188795,0.00483964,0.00
 348279,-0.00422583,-0.01838354,-0.01866965,0.05469515,-0.20244045,0.05
 996132,0.00615603,-0.00978179,0.00801559,-0.01535851,0.00985001,0.0051
 9409,-0.00664866,-0.00282104,-0.00200847,-0.00075520,0.00159708,-0.000
 62584,-0.00024763,-0.00082597,0.00083316,0.00025597,-0.00035003,-0.001
 56597,-0.00161355,-0.00057267,-0.00025541,0.00023277,0.18277057,0.0003
 6818,0.00010690,-0.00074129,-0.00032799,-0.00070651,-0.00045694,0.0006
 6808,0.00778232,0.01188188,-0.01199981,-0.01260990,-0.00689783,0.00234
 375,-0.00356043,-0.00334558,-0.00464317,-0.00311366,-0.00193268,-0.002
 26914,0.00144183,0.00045018,0.00064748,0.00083610,-0.00077549,-0.00006
 267,-0.00017266,0.00038922,0.00021784,-0.00018050,0.00007015,-0.000063
 79,0.00023158,-0.00024692,0.00003043,0.00001482,0.00002855,0.00058595,
 -0.00011818,0.00033430,-0.00017472,-0.00034548,-0.00059708,-0.00788784
 ,0.00605959,-0.01047449,0.06612987,-0.03987566,-0.00011598,0.00361801,
 -0.00377260,0.00221648,-0.00775272,-0.00319837,0.00579234,0.00102254,0
 .00127987,0.00075312,-0.00025478,-0.00009069,-0.00041880,0.00017437,-0
 .00009644,-0.00004421,0.00002450,0.00004101,0.00002349,0.00000459,-0.0
 0000997,-0.00006253,-0.04039896,0.05005703,0.00064491,-0.00014169,-0.0
 0026545,-0.00154802,-0.00103980,-0.00120083,-0.00809713,0.00382543,0.0
 0212761,-0.00033446,-0.00137990,-0.01542910,0.00305252,-0.00084462,-0.
 00109664,0.00001772,0.00015156,-0.00066609,-0.00222239,-0.00010808,-0.
 00317002,0.00030523,-0.00009749,0.00021167,-0.00029156,0.00029661,0.00
 001870,0.00017088,-0.00017672,0.00010323,-0.00010656,0.00045685,-0.000
 40790,0.00010968,0.00003123,-0.00003880,-0.00009753,0.00014548,-0.0000
 6491,0.00072854,0.00086231,-0.00202246,0.02956921,-0.00282266,-0.02114
 605,0.01572259,-0.00082738,-0.02610501,-0.00200214,-0.00167804,0.00444
 565,-0.00150536,-0.00086340,0.00068131,0.00034301,0.00057097,0.0003705
 0,-0.00006351,-0.00028318,-0.00025998,-0.00000238,0.00013861,0.0001890
 7,0.00003382,-0.00037064,-0.00031070,-0.00012818,-0.00001557,-0.000074
 71,-0.03429889,0.00417013,0.06411091\\-0.00004529,-0.00001521,-0.00000
 015,0.00000608,0.00001486,0.00000194,-0.00001872,0.00000865,0.00000617
 ,0.00000874,0.00000078,-0.00001644,-0.00001403,0.00000398,0.00001601,0
 .00000812,0.00001788,0.00001167,0.00001828,-0.00002514,0.00000684,0.00
 000326,0.00000466,0.00000793,0.00001800,-0.00001095,-0.00000731,-0.000
 00068,0.00000045,-0.00000451,0.00000046,-0.00000732,-0.00000232,0.,0.0
 0000138,0.,-0.00000226,-0.00001323,-0.00001662,-0.00001057,-0.00000112
 ,0.00001158,-0.00001464,0.00003208,-0.00001782,-0.00002637,0.00000811,
 -0.00000770,0.00002959,-0.00000735,0.00001348,0.00001816,-0.00001120,-
 0.00000537,0.00000002,0.00000384,-0.00000141,0.00000215,-0.00000861,0.
 00000106,-0.00000349,0.00000191,0.00000207,-0.00000059,0.00000165,-0.0
 0000298,-0.00000193,-0.00000181,0.00000462,0.00002570,0.00000172,-0.00
 000075\\\@
 The archive entry for this job was punched.


 CHEMISTRY BEGAN BY SAYING IT WOULD CHANGE THE BASER
 METALS INTO GOLD.  BY NOT DOING THAT IT HAS DONE MUCH
 GREATER THINGS.  --  RALPH WALDO EMERSON
 Job cpu time:       0 days 12 hours 50 minutes 14.7 seconds.
 Elapsed time:       0 days  0 hours 22 minutes 27.4 seconds.
 File lengths (MBytes):  RWF=    984 Int=      0 D2E=      0 Chk=     27 Scr=      1
 Normal termination of Gaussian 16 at Thu Sep  5 02:25:05 2024.
