 Entering Gaussian System, Link 0=g16
 Initial command:
 /apps/gaussian/g16c01/g16/l1.exe "/jobfs/124198197.gadi-pbs/Gau-1810873.inp" -scrdir="/jobfs/124198197.gadi-pbs/"
 Entering Link 1 = /apps/gaussian/g16c01/g16/l1.exe PID=   1810874.
  
 Copyright (c) 1988-2019, Gaussian, Inc.  All Rights Reserved.
  
 This is part of the Gaussian(R) 16 program.  It is based on
 the Gaussian(R) 09 system (copyright 2009, Gaussian, Inc.),
 the Gaussian(R) 03 system (copyright 2003, Gaussian, Inc.),
 the Gaussian(R) 98 system (copyright 1998, Gaussian, Inc.),
 the Gaussian(R) 94 system (copyright 1995, Gaussian, Inc.),
 the Gaussian 92(TM) system (copyright 1992, Gaussian, Inc.),
 the Gaussian 90(TM) system (copyright 1990, Gaussian, Inc.),
 the Gaussian 88(TM) system (copyright 1988, Gaussian, Inc.),
 the Gaussian 86(TM) system (copyright 1986, Carnegie Mellon
 University), and the Gaussian 82(TM) system (copyright 1983,
 Carnegie Mellon University). Gaussian is a federally registered
 trademark of Gaussian, Inc.
  
 This software contains proprietary and confidential information,
 including trade secrets, belonging to Gaussian, Inc.
  
 This software is provided under written license and may be
 used, copied, transmitted, or stored only in accord with that
 written license.
  
 The following legend is applicable only to US Government
 contracts under FAR:
  
                    RESTRICTED RIGHTS LEGEND
  
 Use, reproduction and disclosure by the US Government is
 subject to restrictions as set forth in subparagraphs (a)
 and (c) of the Commercial Computer Software - Restricted
 Rights clause in FAR 52.227-19.
  
 Gaussian, Inc.
 340 Quinnipiac St., Bldg. 40, Wallingford CT 06492
  
  
 ---------------------------------------------------------------
 Warning -- This program may not be used in any manner that
 competes with the business of Gaussian, Inc. or will provide
 assistance to any competitor of Gaussian, Inc.  The licensee
 of this program is prohibited from giving any competitor of
 Gaussian, Inc. access to this program.  By using this program,
 the user acknowledges that Gaussian, Inc. is engaged in the
 business of creating and licensing software in the field of
 computational chemistry and represents and warrants to the
 licensee that it is not a competitor of Gaussian, Inc. and that
 it will not use this program in any manner prohibited above.
 ---------------------------------------------------------------
  

 Cite this work as:
 Gaussian 16, Revision C.01,
 M. J. Frisch, G. W. Trucks, H. B. Schlegel, G. E. Scuseria, 
 M. A. Robb, J. R. Cheeseman, G. Scalmani, V. Barone, 
 G. A. Petersson, H. Nakatsuji, X. Li, M. Caricato, A. V. Marenich, 
 J. Bloino, B. G. Janesko, R. Gomperts, B. Mennucci, H. P. Hratchian, 
 J. V. Ortiz, A. F. Izmaylov, J. L. Sonnenberg, D. Williams-Young, 
 F. Ding, F. Lipparini, F. Egidi, J. Goings, B. Peng, A. Petrone, 
 T. Henderson, D. Ranasinghe, V. G. Zakrzewski, J. Gao, N. Rega, 
 G. Zheng, W. Liang, M. Hada, M. Ehara, K. Toyota, R. Fukuda, 
 J. Hasegawa, M. Ishida, T. Nakajima, Y. Honda, O. Kitao, H. Nakai, 
 T. Vreven, K. Throssell, J. A. Montgomery, Jr., J. E. Peralta, 
 F. Ogliaro, M. J. Bearpark, J. J. Heyd, E. N. Brothers, K. N. Kudin, 
 V. N. Staroverov, T. A. Keith, R. Kobayashi, J. Normand, 
 K. Raghavachari, A. P. Rendell, J. C. Burant, S. S. Iyengar, 
 J. Tomasi, M. Cossi, J. M. Millam, M. Klene, C. Adamo, R. Cammi, 
 J. W. Ochterski, R. L. Martin, K. Morokuma, O. Farkas, 
 J. B. Foresman, and D. J. Fox, Gaussian, Inc., Wallingford CT, 2019.
 
 ******************************************
 Gaussian 16:  ES64L-G16RevC.01  3-Jul-2019
                 5-Sep-2024 
 ******************************************
 %mem=60gb
 %nprocs=48
 Will use up to   48 processors via shared memory.
 %RWF=/scratch/gy60/or4187/rwf/AMPA.a.Mn.CONF1.B3LYP.rwf
 %NoSave
 %Chk=AMPA.a.Mn.CONF1.B3LYP.chk
 ----------------------------------------------------------------------
 #UM06/Def2TZVP OPT Freq=Noraman INT(grid=ultrafine) EmpiricalDispersio
 n=GD3 SCF=XQC Pop=NPA
 ----------------------------------------------------------------------
 1/18=20,19=15,26=4,38=1/1,3;
 2/9=110,12=2,17=6,18=5,40=1/2;
 3/5=44,7=101,11=2,25=1,30=1,71=1,74=-54,75=-5,116=2,124=31/1,2,3;
 4//1;
 5/5=2,8=3,13=1,38=5/2,8;
 6/7=2,8=2,9=2,10=2,28=1,40=-1/1,7;
 7//1,2,3,16;
 1/18=20,19=15,26=4/3(2);
 2/9=110/2;
 99//99;
 2/9=110/2;
 3/5=44,7=101,11=2,25=1,30=1,71=1,74=-54,75=-5,116=2,124=31/1,2,3;
 4/5=5,16=3,69=1/1;
 5/5=2,8=3,13=1,38=5/2,8;
 7//1,2,3,16;
 1/18=20,19=15,26=4/3(-5);
 2/9=110/2;
 6/7=2,8=2,9=2,10=2,19=2,28=1,40=-1/1,7;
 99/9=1/99;
 -----------------------------
 AMPA.a.Mn.CONF1.B3LYP.optfreq
 -----------------------------
 Symbolic Z-matrix:
 Charge =  1 Multiplicity = 6
 N                    -1.51445   1.78649  -1.28165 
 C                    -2.60265   1.27538  -0.38156 
 P                    -1.9796   -0.1993    0.53037 
 O                    -1.08883   0.1597    1.70659 
 O                    -1.27881  -1.02345  -0.58634 
 O                    -3.34208  -0.91731   0.98887 
 Mn                   -0.11327   0.13738  -1.73747 
 H                    -3.34195  -1.19536   1.92178 
 H                    -0.91245   2.42129  -0.7503 
 H                    -2.95744   2.05018   0.30401 
 H                    -3.43971   0.94582  -1.00244 
 H                    -1.92882   2.35324  -2.02285 
 N                     1.28398  -1.6091   -1.7812 
 C                     2.44729  -1.39113  -0.86706 
 P                     2.07189  -0.02433   0.29991 
 O                     1.33894  -0.51728   1.58876 
 O                     1.27872   1.00591  -0.50965 
 O                     3.53577   0.44093   0.72738 
 H                     3.61672   0.80929   1.62588 
 H                     0.65576  -2.3055   -1.37124 
 H                     2.73023  -2.30133  -0.33028 
 H                     3.30491  -1.05933  -1.45881 
 H                     1.61865  -2.00932  -2.65828 
 H                     0.32309  -0.24402   1.68539 
 

 GradGradGradGradGradGradGradGradGradGradGradGradGradGradGradGradGradGrad
 Berny optimization.
 Initialization pass.
                           ----------------------------
                           !    Initial Parameters    !
                           ! (Angstroms and Degrees)  !
 --------------------------                            --------------------------
 ! Name  Definition              Value          Derivative Info.                !
 --------------------------------------------------------------------------------
 ! R1    R(1,2)                  1.5019         estimate D2E/DX2                !
 ! R2    R(1,9)                  1.0236         estimate D2E/DX2                !
 ! R3    R(1,12)                 1.0209         estimate D2E/DX2                !
 ! R4    R(2,3)                  1.8424         estimate D2E/DX2                !
 ! R5    R(2,10)                 1.0937         estimate D2E/DX2                !
 ! R6    R(2,11)                 1.0931         estimate D2E/DX2                !
 ! R7    R(3,4)                  1.5185         estimate D2E/DX2                !
 ! R8    R(3,5)                  1.5548         estimate D2E/DX2                !
 ! R9    R(3,6)                  1.6069         estimate D2E/DX2                !
 ! R10   R(5,7)                  2.0078         estimate D2E/DX2                !
 ! R11   R(6,8)                  0.9735         estimate D2E/DX2                !
 ! R12   R(7,17)                 2.0493         estimate D2E/DX2                !
 ! R13   R(13,14)                1.4955         estimate D2E/DX2                !
 ! R14   R(13,20)                1.0236         estimate D2E/DX2                !
 ! R15   R(13,23)                1.0205         estimate D2E/DX2                !
 ! R16   R(14,15)                1.836          estimate D2E/DX2                !
 ! R17   R(14,21)                1.0939         estimate D2E/DX2                !
 ! R18   R(14,22)                1.0935         estimate D2E/DX2                !
 ! R19   R(15,16)                1.5625         estimate D2E/DX2                !
 ! R20   R(15,17)                1.5316         estimate D2E/DX2                !
 ! R21   R(15,18)                1.5944         estimate D2E/DX2                !
 ! R22   R(16,24)                1.0564         estimate D2E/DX2                !
 ! R23   R(18,19)                0.9744         estimate D2E/DX2                !
 ! A1    A(2,1,9)              109.0314         estimate D2E/DX2                !
 ! A2    A(2,1,12)             109.2657         estimate D2E/DX2                !
 ! A3    A(9,1,12)             105.742          estimate D2E/DX2                !
 ! A4    A(1,2,3)              108.9054         estimate D2E/DX2                !
 ! A5    A(1,2,10)             111.6927         estimate D2E/DX2                !
 ! A6    A(1,2,11)             108.4845         estimate D2E/DX2                !
 ! A7    A(3,2,10)             111.4977         estimate D2E/DX2                !
 ! A8    A(3,2,11)             107.3853         estimate D2E/DX2                !
 ! A9    A(10,2,11)            108.7372         estimate D2E/DX2                !
 ! A10   A(2,3,4)              113.1127         estimate D2E/DX2                !
 ! A11   A(2,3,5)              102.7794         estimate D2E/DX2                !
 ! A12   A(2,3,6)              102.2479         estimate D2E/DX2                !
 ! A13   A(4,3,5)              114.661          estimate D2E/DX2                !
 ! A14   A(4,3,6)              112.4584         estimate D2E/DX2                !
 ! A15   A(5,3,6)              110.503          estimate D2E/DX2                !
 ! A16   A(3,5,7)              111.5294         estimate D2E/DX2                !
 ! A17   A(3,6,8)              113.6382         estimate D2E/DX2                !
 ! A18   A(5,7,17)             107.2084         estimate D2E/DX2                !
 ! A19   A(14,13,20)           109.3764         estimate D2E/DX2                !
 ! A20   A(14,13,23)           109.1125         estimate D2E/DX2                !
 ! A21   A(20,13,23)           106.1816         estimate D2E/DX2                !
 ! A22   A(13,14,15)           109.7539         estimate D2E/DX2                !
 ! A23   A(13,14,21)           112.3252         estimate D2E/DX2                !
 ! A24   A(13,14,22)           108.8755         estimate D2E/DX2                !
 ! A25   A(15,14,21)           111.1262         estimate D2E/DX2                !
 ! A26   A(15,14,22)           106.1669         estimate D2E/DX2                !
 ! A27   A(21,14,22)           108.3701         estimate D2E/DX2                !
 ! A28   A(14,15,16)           112.6651         estimate D2E/DX2                !
 ! A29   A(14,15,17)           105.7046         estimate D2E/DX2                !
 ! A30   A(14,15,18)           101.5321         estimate D2E/DX2                !
 ! A31   A(16,15,17)           113.9089         estimate D2E/DX2                !
 ! A32   A(16,15,18)           107.5535         estimate D2E/DX2                !
 ! A33   A(17,15,18)           114.8908         estimate D2E/DX2                !
 ! A34   A(15,16,24)           116.419          estimate D2E/DX2                !
 ! A35   A(7,17,15)            112.5421         estimate D2E/DX2                !
 ! A36   A(15,18,19)           115.708          estimate D2E/DX2                !
 ! D1    D(9,1,2,3)            -85.826          estimate D2E/DX2                !
 ! D2    D(9,1,2,10)            37.7556         estimate D2E/DX2                !
 ! D3    D(9,1,2,11)           157.5904         estimate D2E/DX2                !
 ! D4    D(12,1,2,3)           159.0497         estimate D2E/DX2                !
 ! D5    D(12,1,2,10)          -77.3687         estimate D2E/DX2                !
 ! D6    D(12,1,2,11)           42.4661         estimate D2E/DX2                !
 ! D7    D(1,2,3,4)             78.8368         estimate D2E/DX2                !
 ! D8    D(1,2,3,5)            -45.3568         estimate D2E/DX2                !
 ! D9    D(1,2,3,6)           -159.9868         estimate D2E/DX2                !
 ! D10   D(10,2,3,4)           -44.8608         estimate D2E/DX2                !
 ! D11   D(10,2,3,5)          -169.0545         estimate D2E/DX2                !
 ! D12   D(10,2,3,6)            76.3156         estimate D2E/DX2                !
 ! D13   D(11,2,3,4)          -163.8793         estimate D2E/DX2                !
 ! D14   D(11,2,3,5)            71.9271         estimate D2E/DX2                !
 ! D15   D(11,2,3,6)           -42.7029         estimate D2E/DX2                !
 ! D16   D(2,3,5,7)             45.8918         estimate D2E/DX2                !
 ! D17   D(4,3,5,7)            -77.2728         estimate D2E/DX2                !
 ! D18   D(6,3,5,7)            154.3769         estimate D2E/DX2                !
 ! D19   D(2,3,6,8)           -133.6509         estimate D2E/DX2                !
 ! D20   D(4,3,6,8)            -12.0241         estimate D2E/DX2                !
 ! D21   D(5,3,6,8)            117.5147         estimate D2E/DX2                !
 ! D22   D(3,5,7,17)            59.0197         estimate D2E/DX2                !
 ! D23   D(5,7,17,15)           55.1031         estimate D2E/DX2                !
 ! D24   D(20,13,14,15)        -90.9221         estimate D2E/DX2                !
 ! D25   D(20,13,14,21)         33.2347         estimate D2E/DX2                !
 ! D26   D(20,13,14,22)        153.2645         estimate D2E/DX2                !
 ! D27   D(23,13,14,15)        153.3232         estimate D2E/DX2                !
 ! D28   D(23,13,14,21)        -82.52           estimate D2E/DX2                !
 ! D29   D(23,13,14,22)         37.5098         estimate D2E/DX2                !
 ! D30   D(13,14,15,16)         87.5649         estimate D2E/DX2                !
 ! D31   D(13,14,15,17)        -37.4402         estimate D2E/DX2                !
 ! D32   D(13,14,15,18)       -157.6779         estimate D2E/DX2                !
 ! D33   D(21,14,15,16)        -37.2869         estimate D2E/DX2                !
 ! D34   D(21,14,15,17)       -162.292          estimate D2E/DX2                !
 ! D35   D(21,14,15,18)         77.4703         estimate D2E/DX2                !
 ! D36   D(22,14,15,16)       -154.9187         estimate D2E/DX2                !
 ! D37   D(22,14,15,17)         80.0761         estimate D2E/DX2                !
 ! D38   D(22,14,15,18)        -40.1615         estimate D2E/DX2                !
 ! D39   D(14,15,16,24)       -109.5011         estimate D2E/DX2                !
 ! D40   D(17,15,16,24)         10.8963         estimate D2E/DX2                !
 ! D41   D(18,15,16,24)        139.4403         estimate D2E/DX2                !
 ! D42   D(14,15,17,7)          41.9545         estimate D2E/DX2                !
 ! D43   D(16,15,17,7)         -82.275          estimate D2E/DX2                !
 ! D44   D(18,15,17,7)         153.0176         estimate D2E/DX2                !
 ! D45   D(14,15,18,19)       -149.8994         estimate D2E/DX2                !
 ! D46   D(16,15,18,19)        -31.4077         estimate D2E/DX2                !
 ! D47   D(17,15,18,19)         96.5716         estimate D2E/DX2                !
 --------------------------------------------------------------------------------
 Trust Radius=3.00D-01 FncErr=1.00D-07 GrdErr=1.00D-06 EigMax=2.50D+02 EigMin=1.00D-04
 Number of steps in this run=    116 maximum allowed number of steps=    144.
 GradGradGradGradGradGradGradGradGradGradGradGradGradGradGradGradGradGrad

                          Input orientation:                          
 ---------------------------------------------------------------------
 Center     Atomic      Atomic             Coordinates (Angstroms)
 Number     Number       Type             X           Y           Z
 ---------------------------------------------------------------------
      1          7           0       -1.514451    1.786491   -1.281650
      2          6           0       -2.602653    1.275380   -0.381556
      3         15           0       -1.979604   -0.199298    0.530372
      4          8           0       -1.088827    0.159701    1.706590
      5          8           0       -1.278807   -1.023455   -0.586337
      6          8           0       -3.342080   -0.917306    0.988867
      7         25           0       -0.113267    0.137375   -1.737470
      8          1           0       -3.341948   -1.195362    1.921776
      9          1           0       -0.912447    2.421289   -0.750296
     10          1           0       -2.957442    2.050176    0.304007
     11          1           0       -3.439711    0.945818   -1.002444
     12          1           0       -1.928818    2.353244   -2.022845
     13          7           0        1.283985   -1.609104   -1.781199
     14          6           0        2.447291   -1.391129   -0.867057
     15         15           0        2.071888   -0.024331    0.299907
     16          8           0        1.338941   -0.517278    1.588761
     17          8           0        1.278719    1.005910   -0.509652
     18          8           0        3.535774    0.440934    0.727381
     19          1           0        3.616716    0.809286    1.625876
     20          1           0        0.655755   -2.305501   -1.371235
     21          1           0        2.730226   -2.301330   -0.330284
     22          1           0        3.304913   -1.059332   -1.458814
     23          1           0        1.618647   -2.009323   -2.658276
     24          1           0        0.323091   -0.244023    1.685386
 ---------------------------------------------------------------------
                    Distance matrix (angstroms):
                    1          2          3          4          5
     1  N    0.000000
     2  C    1.501861   0.000000
     3  P    2.728213   1.842411   0.000000
     4  O    3.428875   2.810118   1.518504   0.000000
     5  O    2.904269   2.660666   1.554796   2.587173   0.000000
     6  O    3.975675   2.689365   1.606889   2.598503   2.598005
     7  Mn   2.211486   3.054603   2.956293   3.579632   2.007764
     8  H    4.742692   3.457812   2.187265   2.638002   3.252189
     9  H    1.023580   2.075060   3.105867   3.343976   3.468049
    10  H    2.160107   1.093700   2.463238   3.005471   3.613548
    11  H    2.119271   1.093059   2.406808   3.671988   2.953080
    12  H    1.020921   2.075975   3.610674   4.407482   3.726682
    13  N    4.428415   5.038373   4.240510   4.574230   2.887660
    14  C    5.095543   5.731310   4.792773   4.640351   3.754703
    15  P    4.317665   4.899487   4.061812   3.464498   3.607053
    16  O    4.657087   4.757304   3.497720   2.523141   3.440911
    17  O    3.001181   3.892823   3.626410   3.351578   3.265753
    18  O    5.599242   6.293356   5.555908   4.735492   5.201008
    19  H    5.978086   6.551914   5.791042   4.750854   5.676176
    20  H    4.632733   4.941598   3.872637   4.312052   2.449946
    21  H    5.969310   6.421455   5.228935   4.979025   4.215551
    22  H    5.599676   6.442880   5.711624   5.550746   4.666154
    23  H    5.110734   5.813097   5.137225   5.575584   3.695958
    24  H    4.037679   3.891120   2.576522   1.468658   2.886922
                    6          7          8          9         10
     6  O    0.000000
     7  Mn   4.355513   0.000000
     8  H    0.973465   5.058720   0.000000
     9  H    4.480404   2.613324   5.111028   0.000000
    10  H    3.069679   3.989457   3.646716   2.330512   0.000000
    11  H    2.728751   3.501295   3.625641   2.937287   1.777359
    12  H    4.665214   2.878843   5.490863   1.630038   2.562061
    13  N    5.436205   2.237055   5.939904   4.704375   5.977300
    14  C    6.098014   3.106510   6.428935   5.082913   6.513456
    15  P    5.530200   2.991982   5.771602   3.998780   5.440382
    16  O    4.736227   3.687992   4.741457   4.378939   5.167332
    17  O    5.224567   2.049272   5.666392   2.619621   4.438197
    18  O    7.015559   4.413971   7.169875   5.088419   6.703042
    19  H    7.198037   5.067182   7.247701   5.362654   6.819582
    20  H    4.845601   2.587115   5.296976   5.018701   5.901995
    21  H    6.366205   4.001613   6.570101   5.979014   7.189401
    22  H    7.084761   3.632316   7.458395   5.513878   7.210664
    23  H    6.253236   2.907873   6.800508   5.447674   6.796708
    24  H    3.791032   3.471572   3.793868   3.816148   4.234791
                   11         12         13         14         15
    11  H    0.000000
    12  H    2.303229   0.000000
    13  N    5.426544   5.106926   0.000000
    14  C    6.335333   5.874224   1.495477   0.000000
    15  P    5.745871   5.201316   2.731904   1.835992   0.000000
    16  O    5.629432   5.653481   3.542842   2.832506   1.562483
    17  O    4.744474   3.793858   2.907775   2.690556   1.531633
    18  O    7.204484   6.409559   3.945401   2.661481   1.594418
    19  H    7.531259   6.815418   4.785228   3.524783   2.199910
    20  H    5.242129   5.367356   1.023577   2.073614   3.162575
    21  H    7.004562   6.799743   2.162393   1.093912   2.452605
    22  H    7.051160   6.273416   2.119041   1.093518   2.384256
    23  H    6.087826   5.658646   1.020508   2.068159   3.591165
    24  H    4.774812   5.056468   3.847594   3.513266   2.241898
                   16         17         18         19         20
    16  O    0.000000
    17  O    2.593658   0.000000
    18  O    2.546807   2.635099   0.000000
    19  H    2.636173   3.172597   0.974438   0.000000
    20  H    3.525061   3.477909   4.499067   5.239452   0.000000
    21  H    2.966689   3.616197   3.047552   3.779995   2.320997
    22  H    3.666958   3.044930   2.661493   3.619982   2.928932
    23  H    4.510183   3.718032   4.598022   5.503707   1.634428
    24  H    1.056388   2.700694   3.421736   3.458463   3.701795
                   21         22         23         24
    21  H    0.000000
    22  H    1.773811   0.000000
    23  H    2.596232   2.276990   0.000000
    24  H    3.753629   4.409307   4.864375   0.000000
 Stoichiometry    C2H11MnN2O6P2(1+,6)
 Framework group  C1[X(C2H11MnN2O6P2)]
 Deg. of freedom    66
 Full point group                 C1      NOp   1
 Largest Abelian subgroup         C1      NOp   1
 Largest concise Abelian subgroup C1      NOp   1
                         Standard orientation:                         
 ---------------------------------------------------------------------
 Center     Atomic      Atomic             Coordinates (Angstroms)
 Number     Number       Type             X           Y           Z
 ---------------------------------------------------------------------
      1          7           0       -1.629621   -1.301317   -1.546732
      2          6           0       -2.704743   -0.392101   -1.024216
      3         15           0       -1.984456    0.700264    0.272859
      4          8           0       -1.192094    1.862466   -0.299244
      5          8           0       -1.151911   -0.291094    1.133944
      6          8           0       -3.290148    1.183399    1.075258
      7         25           0       -0.051809   -1.518549   -0.012460
      8          1           0       -3.308188    2.140666    1.251176
      9          1           0       -1.119967   -0.820999   -2.293233
     10          1           0       -3.167424    0.189636   -1.826518
     11          1           0       -3.473784   -1.004000   -0.545744
     12          1           0       -2.061181   -2.115806   -1.985641
     13          7           0        1.511554   -1.315898    1.574753
     14          6           0        2.601532   -0.388054    1.141735
     15         15           0        2.036349    0.605532   -0.295005
     16          8           0        1.293507    1.912294    0.131506
     17          8           0        1.185864   -0.342461   -1.145817
     18          8           0        3.424459    1.034085   -0.952016
     19          1           0        3.424579    1.888751   -1.420070
     20          1           0        0.935875   -0.855534    2.284942
     21          1           0        2.946379    0.256417    1.955603
     22          1           0        3.450107   -0.979954    0.787677
     23          1           0        1.926605   -2.130022    2.029036
     24          1           0        0.252132    1.939550   -0.043855
 ---------------------------------------------------------------------
 Rotational constants (GHZ):           0.8512315           0.4119002           0.3596054
 Standard basis: def2TZVP (5D, 7F)
 There are   562 symmetry adapted cartesian basis functions of A   symmetry.
 There are   495 symmetry adapted basis functions of A   symmetry.
   495 basis functions,   838 primitive gaussians,   562 cartesian basis functions
    72 alpha electrons       67 beta electrons
       nuclear repulsion energy      1613.2854999264 Hartrees.
 NAtoms=   24 NActive=   24 NUniq=   24 SFac= 1.00D+00 NAtFMM=   60 NAOKFM=F Big=F
 Integral buffers will be    131072 words long.
 Raffenetti 2 integral format.
 Two-electron integral symmetry is turned on.
 Nuclear repulsion after empirical dispersion term =     1613.2814553390 Hartrees.
 One-electron integrals computed using PRISM.
   1 Symmetry operations used in ECPInt.
 ECPInt:  NShTT=   19110 NPrTT=   63930 LenC2=   17591 LenP2D=   41788.
 LDataN:  DoStor=T MaxTD1= 6 Len=  172
 NBasis=   495 RedAO= T EigKep=  4.46D-04  NBF=   495
 NBsUse=   495 1.00D-06 EigRej= -1.00D+00 NBFU=   495
 ExpMin= 3.93D-02 ExpMax= 2.77D+05 ExpMxC= 2.68D+03 IAcc=3 IRadAn=         5 AccDes= 0.00D+00
 Harris functional with IExCor= 1009 and IRadAn=       5 diagonalized for initial guess.
 HarFok:  IExCor= 1009 AccDes= 0.00D+00 IRadAn=         5 IDoV= 1 UseB2=F ITyADJ=14
 ICtDFT=  3500011 ScaDFX=  1.000000  1.000000  1.000000  1.000000
 FoFCou: FMM=F IPFlag=           0 FMFlag=      100000 FMFlg1=           0
         NFxFlg=           0 DoJE=T BraDBF=F KetDBF=T FulRan=T
         wScrn=  0.000000 ICntrl=       500 IOpCl=  0 I1Cent=   200000004 NGrid=           0
         NMat0=    1 NMatS0=      1 NMatT0=    0 NMatD0=    1 NMtDS0=    0 NMtDT0=    0
 Petite list used in FoFCou.
 Initial guess <Sx>= 0.0000 <Sy>= 0.0000 <Sz>= 2.5000 <S**2>= 8.7500 S= 2.5000
 Requested convergence on RMS density matrix=1.00D-08 within  32 cycles.
 Requested convergence on MAX density matrix=1.00D-06.
 Requested convergence on             energy=1.00D-06.
 No special actions if energy rises.
 EnCoef did   100 forward-backward iterations
 SCF Done:  E(UM06) =  -2477.44002083     A.U. after   18 cycles
            NFock= 18  Conv=0.80D-08     -V/T= 2.0025
 <Sx>= 0.0000 <Sy>= 0.0000 <Sz>= 2.5000 <S**2>= 8.7578 S= 2.5013
 <L.S>= 0.000000000000E+00
 Annihilation of the first spin contaminant:
 S**2 before annihilation     8.7578,   after     8.7500
 QCSCF skips out because SCF is already converged.

 **********************************************************************

            Population analysis using the SCF Density.

 **********************************************************************

 Orbital symmetries:
 Alpha Orbitals:
       Occupied  (A) (A) (A) (A) (A) (A) (A) (A) (A) (A) (A) (A)
                 (A) (A) (A) (A) (A) (A) (A) (A) (A) (A) (A) (A)
                 (A) (A) (A) (A) (A) (A) (A) (A) (A) (A) (A) (A)
                 (A) (A) (A) (A) (A) (A) (A) (A) (A) (A) (A) (A)
                 (A) (A) (A) (A) (A) (A) (A) (A) (A) (A) (A) (A)
                 (A) (A) (A) (A) (A) (A) (A) (A) (A) (A) (A) (A)
       Virtual   (A) (A) (A) (A) (A) (A) (A) (A) (A) (A) (A) (A)
                 (A) (A) (A) (A) (A) (A) (A) (A) (A) (A) (A) (A)
                 (A) (A) (A) (A) (A) (A) (A) (A) (A) (A) (A) (A)
                 (A) (A) (A) (A) (A) (A) (A) (A) (A) (A) (A) (A)
                 (A) (A) (A) (A) (A) (A) (A) (A) (A) (A) (A) (A)
                 (A) (A) (A) (A) (A) (A) (A) (A) (A) (A) (A) (A)
                 (A) (A) (A) (A) (A) (A) (A) (A) (A) (A) (A) (A)
                 (A) (A) (A) (A) (A) (A) (A) (A) (A) (A) (A) (A)
                 (A) (A) (A) (A) (A) (A) (A) (A) (A) (A) (A) (A)
                 (A) (A) (A) (A) (A) (A) (A) (A) (A) (A) (A) (A)
                 (A) (A) (A) (A) (A) (A) (A) (A) (A) (A) (A) (A)
                 (A) (A) (A) (A) (A) (A) (A) (A) (A) (A) (A) (A)
                 (A) (A) (A) (A) (A) (A) (A) (A) (A) (A) (A) (A)
                 (A) (A) (A) (A) (A) (A) (A) (A) (A) (A) (A) (A)
                 (A) (A) (A) (A) (A) (A) (A) (A) (A) (A) (A) (A)
                 (A) (A) (A) (A) (A) (A) (A) (A) (A) (A) (A) (A)
                 (A) (A) (A) (A) (A) (A) (A) (A) (A) (A) (A) (A)
                 (A) (A) (A) (A) (A) (A) (A) (A) (A) (A) (A) (A)
                 (A) (A) (A) (A) (A) (A) (A) (A) (A) (A) (A) (A)
                 (A) (A) (A) (A) (A) (A) (A) (A) (A) (A) (A) (A)
                 (A) (A) (A) (A) (A) (A) (A) (A) (A) (A) (A) (A)
                 (A) (A) (A) (A) (A) (A) (A) (A) (A) (A) (A) (A)
                 (A) (A) (A) (A) (A) (A) (A) (A) (A) (A) (A) (A)
                 (A) (A) (A) (A) (A) (A) (A) (A) (A) (A) (A) (A)
                 (A) (A) (A) (A) (A) (A) (A) (A) (A) (A) (A) (A)
                 (A) (A) (A) (A) (A) (A) (A) (A) (A) (A) (A) (A)
                 (A) (A) (A) (A) (A) (A) (A) (A) (A) (A) (A) (A)
                 (A) (A) (A) (A) (A) (A) (A) (A) (A) (A) (A) (A)
                 (A) (A) (A) (A) (A) (A) (A) (A) (A) (A) (A) (A)
                 (A) (A) (A) (A) (A) (A) (A) (A) (A) (A) (A) (A)
                 (A) (A) (A) (A) (A) (A) (A) (A) (A) (A) (A) (A)
                 (A) (A) (A) (A) (A) (A) (A) (A) (A) (A) (A) (A)
                 (A) (A) (A) (A) (A) (A) (A) (A) (A) (A) (A) (A)
                 (A) (A) (A) (A) (A) (A) (A) (A) (A) (A) (A) (A)
                 (A) (A) (A) (A) (A) (A) (A) (A) (A) (A) (A) (A)
                 (A) (A) (A)
 Beta  Orbitals:
       Occupied  (A) (A) (A) (A) (A) (A) (A) (A) (A) (A) (A) (A)
                 (A) (A) (A) (A) (A) (A) (A) (A) (A) (A) (A) (A)
                 (A) (A) (A) (A) (A) (A) (A) (A) (A) (A) (A) (A)
                 (A) (A) (A) (A) (A) (A) (A) (A) (A) (A) (A) (A)
                 (A) (A) (A) (A) (A) (A) (A) (A) (A) (A) (A) (A)
                 (A) (A) (A) (A) (A) (A) (A)
       Virtual   (A) (A) (A) (A) (A) (A) (A) (A) (A) (A) (A) (A)
                 (A) (A) (A) (A) (A) (A) (A) (A) (A) (A) (A) (A)
                 (A) (A) (A) (A) (A) (A) (A) (A) (A) (A) (A) (A)
                 (A) (A) (A) (A) (A) (A) (A) (A) (A) (A) (A) (A)
                 (A) (A) (A) (A) (A) (A) (A) (A) (A) (A) (A) (A)
                 (A) (A) (A) (A) (A) (A) (A) (A) (A) (A) (A) (A)
                 (A) (A) (A) (A) (A) (A) (A) (A) (A) (A) (A) (A)
                 (A) (A) (A) (A) (A) (A) (A) (A) (A) (A) (A) (A)
                 (A) (A) (A) (A) (A) (A) (A) (A) (A) (A) (A) (A)
                 (A) (A) (A) (A) (A) (A) (A) (A) (A) (A) (A) (A)
                 (A) (A) (A) (A) (A) (A) (A) (A) (A) (A) (A) (A)
                 (A) (A) (A) (A) (A) (A) (A) (A) (A) (A) (A) (A)
                 (A) (A) (A) (A) (A) (A) (A) (A) (A) (A) (A) (A)
                 (A) (A) (A) (A) (A) (A) (A) (A) (A) (A) (A) (A)
                 (A) (A) (A) (A) (A) (A) (A) (A) (A) (A) (A) (A)
                 (A) (A) (A) (A) (A) (A) (A) (A) (A) (A) (A) (A)
                 (A) (A) (A) (A) (A) (A) (A) (A) (A) (A) (A) (A)
                 (A) (A) (A) (A) (A) (A) (A) (A) (A) (A) (A) (A)
                 (A) (A) (A) (A) (A) (A) (A) (A) (A) (A) (A) (A)
                 (A) (A) (A) (A) (A) (A) (A) (A) (A) (A) (A) (A)
                 (A) (A) (A) (A) (A) (A) (A) (A) (A) (A) (A) (A)
                 (A) (A) (A) (A) (A) (A) (A) (A) (A) (A) (A) (A)
                 (A) (A) (A) (A) (A) (A) (A) (A) (A) (A) (A) (A)
                 (A) (A) (A) (A) (A) (A) (A) (A) (A) (A) (A) (A)
                 (A) (A) (A) (A) (A) (A) (A) (A) (A) (A) (A) (A)
                 (A) (A) (A) (A) (A) (A) (A) (A) (A) (A) (A) (A)
                 (A) (A) (A) (A) (A) (A) (A) (A) (A) (A) (A) (A)
                 (A) (A) (A) (A) (A) (A) (A) (A) (A) (A) (A) (A)
                 (A) (A) (A) (A) (A) (A) (A) (A) (A) (A) (A) (A)
                 (A) (A) (A) (A) (A) (A) (A) (A) (A) (A) (A) (A)
                 (A) (A) (A) (A) (A) (A) (A) (A) (A) (A) (A) (A)
                 (A) (A) (A) (A) (A) (A) (A) (A) (A) (A) (A) (A)
                 (A) (A) (A) (A) (A) (A) (A) (A) (A) (A) (A) (A)
                 (A) (A) (A) (A) (A) (A) (A) (A) (A) (A) (A) (A)
                 (A) (A) (A) (A) (A) (A) (A) (A) (A) (A) (A) (A)
                 (A) (A) (A) (A) (A) (A) (A) (A)
 The electronic state is 6-A.
 Alpha  occ. eigenvalues -- -235.88737 -77.49625 -77.46022 -27.69677 -23.69510
 Alpha  occ. eigenvalues --  -23.69259 -23.69190 -19.38888 -19.36143 -19.35911
 Alpha  occ. eigenvalues --  -19.34752 -19.32677 -19.30268 -14.58474 -14.57930
 Alpha  occ. eigenvalues --  -10.43863 -10.41959  -6.90033  -6.86452  -5.02102
 Alpha  occ. eigenvalues --   -5.01946  -5.01878  -4.98519  -4.98386  -4.98273
 Alpha  occ. eigenvalues --   -3.50307  -2.34790  -2.34199  -2.34071  -1.24373
 Alpha  occ. eigenvalues --   -1.21005  -1.18798  -1.15619  -1.14748  -1.10760
 Alpha  occ. eigenvalues --   -1.09057  -1.08169  -0.87679  -0.85443  -0.77438
 Alpha  occ. eigenvalues --   -0.74088  -0.71371  -0.69701  -0.69263  -0.66478
 Alpha  occ. eigenvalues --   -0.64953  -0.64079  -0.62780  -0.61906  -0.60635
 Alpha  occ. eigenvalues --   -0.59783  -0.58493  -0.56866  -0.56556  -0.56078
 Alpha  occ. eigenvalues --   -0.54808  -0.54356  -0.53136  -0.53015  -0.51533
 Alpha  occ. eigenvalues --   -0.51332  -0.50958  -0.49733  -0.49667  -0.48772
 Alpha  occ. eigenvalues --   -0.48038  -0.46729  -0.45789  -0.44656  -0.44001
 Alpha  occ. eigenvalues --   -0.42705  -0.40632
 Alpha virt. eigenvalues --   -0.19113  -0.12333  -0.10973  -0.10017  -0.08473
 Alpha virt. eigenvalues --   -0.07555  -0.07220  -0.06516  -0.05831  -0.04926
 Alpha virt. eigenvalues --   -0.03995  -0.03647  -0.03225  -0.02933  -0.02256
 Alpha virt. eigenvalues --   -0.01106  -0.00573  -0.00269   0.00862   0.01274
 Alpha virt. eigenvalues --    0.02309   0.03273   0.03380   0.04551   0.06843
 Alpha virt. eigenvalues --    0.07162   0.08685   0.09215   0.10437   0.11054
 Alpha virt. eigenvalues --    0.12241   0.13360   0.14368   0.14386   0.14916
 Alpha virt. eigenvalues --    0.15379   0.16089   0.16549   0.17880   0.18448
 Alpha virt. eigenvalues --    0.19223   0.19864   0.20405   0.21464   0.22587
 Alpha virt. eigenvalues --    0.24244   0.24406   0.25376   0.25639   0.26232
 Alpha virt. eigenvalues --    0.26741   0.27651   0.28306   0.28673   0.29071
 Alpha virt. eigenvalues --    0.30420   0.30644   0.32331   0.32450   0.32645
 Alpha virt. eigenvalues --    0.34100   0.34512   0.35267   0.35628   0.37264
 Alpha virt. eigenvalues --    0.38220   0.38590   0.39507   0.40200   0.40960
 Alpha virt. eigenvalues --    0.41724   0.43115   0.43465   0.44007   0.45204
 Alpha virt. eigenvalues --    0.46216   0.49127   0.49480   0.50633   0.50994
 Alpha virt. eigenvalues --    0.52010   0.52872   0.54914   0.57225   0.58222
 Alpha virt. eigenvalues --    0.58271   0.58728   0.60343   0.60959   0.61536
 Alpha virt. eigenvalues --    0.62237   0.64483   0.64808   0.67736   0.68170
 Alpha virt. eigenvalues --    0.69551   0.70607   0.71658   0.71920   0.73338
 Alpha virt. eigenvalues --    0.73700   0.75991   0.77081   0.77897   0.79950
 Alpha virt. eigenvalues --    0.81276   0.81778   0.82792   0.85571   0.87261
 Alpha virt. eigenvalues --    0.88503   0.91145   0.93202   0.94957   0.95143
 Alpha virt. eigenvalues --    0.99690   1.01566   1.04443   1.04919   1.06667
 Alpha virt. eigenvalues --    1.07818   1.10172   1.10558   1.13283   1.14416
 Alpha virt. eigenvalues --    1.14737   1.15671   1.16742   1.18932   1.20031
 Alpha virt. eigenvalues --    1.20371   1.20796   1.22467   1.22933   1.24185
 Alpha virt. eigenvalues --    1.26019   1.27772   1.28147   1.28390   1.29827
 Alpha virt. eigenvalues --    1.30852   1.32396   1.33129   1.33524   1.34271
 Alpha virt. eigenvalues --    1.34877   1.35245   1.36215   1.39837   1.41212
 Alpha virt. eigenvalues --    1.43734   1.43753   1.46921   1.48087   1.49433
 Alpha virt. eigenvalues --    1.50503   1.51703   1.52411   1.55651   1.57810
 Alpha virt. eigenvalues --    1.59011   1.60407   1.61108   1.64872   1.65629
 Alpha virt. eigenvalues --    1.66153   1.67125   1.68612   1.69931   1.70905
 Alpha virt. eigenvalues --    1.71995   1.72858   1.74488   1.74661   1.75585
 Alpha virt. eigenvalues --    1.76091   1.77033   1.78617   1.79640   1.80830
 Alpha virt. eigenvalues --    1.81108   1.81500   1.82464   1.83867   1.85835
 Alpha virt. eigenvalues --    1.86470   1.87218   1.88080   1.89451   1.90923
 Alpha virt. eigenvalues --    1.92274   1.92423   1.94666   1.95706   1.96669
 Alpha virt. eigenvalues --    1.97478   1.99058   2.00757   2.02139   2.03688
 Alpha virt. eigenvalues --    2.05402   2.06256   2.07217   2.08173   2.09072
 Alpha virt. eigenvalues --    2.09909   2.10809   2.12675   2.12826   2.14819
 Alpha virt. eigenvalues --    2.14933   2.16554   2.18193   2.18957   2.20762
 Alpha virt. eigenvalues --    2.21978   2.23623   2.26385   2.27698   2.29987
 Alpha virt. eigenvalues --    2.31935   2.32979   2.34131   2.36064   2.36705
 Alpha virt. eigenvalues --    2.37899   2.41343   2.41713   2.44242   2.45276
 Alpha virt. eigenvalues --    2.46886   2.49960   2.50159   2.51682   2.53236
 Alpha virt. eigenvalues --    2.53895   2.54530   2.56692   2.58594   2.60151
 Alpha virt. eigenvalues --    2.63111   2.66457   2.71027   2.72234   2.73729
 Alpha virt. eigenvalues --    2.76360   2.78118   2.79931   2.82157   2.82986
 Alpha virt. eigenvalues --    2.83969   2.85387   2.88560   2.89940   2.90730
 Alpha virt. eigenvalues --    2.92117   2.94093   2.95948   2.96700   2.99062
 Alpha virt. eigenvalues --    2.99677   3.01442   3.02196   3.04740   3.05215
 Alpha virt. eigenvalues --    3.07089   3.10570   3.11269   3.13359   3.13999
 Alpha virt. eigenvalues --    3.14605   3.15678   3.18271   3.19231   3.21128
 Alpha virt. eigenvalues --    3.21497   3.22398   3.22907   3.23917   3.25435
 Alpha virt. eigenvalues --    3.28354   3.28740   3.31614   3.31987   3.33462
 Alpha virt. eigenvalues --    3.34949   3.35597   3.37246   3.40065   3.43057
 Alpha virt. eigenvalues --    3.46186   3.49215   3.50636   3.53356   3.58049
 Alpha virt. eigenvalues --    3.60711   3.64017   3.65386   3.66496   3.67789
 Alpha virt. eigenvalues --    3.74213   3.78445   3.80273   3.83077   3.86451
 Alpha virt. eigenvalues --    3.90497   3.91242   3.92457   3.95827   4.10627
 Alpha virt. eigenvalues --    4.11669   4.14516   4.15601   4.45266   4.45863
 Alpha virt. eigenvalues --    4.52402   4.52735   4.70021   4.71248   4.73440
 Alpha virt. eigenvalues --    4.74576   4.82071   4.82874   4.86863   4.90642
 Alpha virt. eigenvalues --    4.91661   4.96398   4.97306   4.98510   4.99760
 Alpha virt. eigenvalues --    5.00120   5.00470   5.00842   5.02049   5.02489
 Alpha virt. eigenvalues --    5.03313   5.03472   5.04596   5.05003   5.06017
 Alpha virt. eigenvalues --    5.06543   5.07206   5.08688   5.10227   5.11489
 Alpha virt. eigenvalues --    5.12285   5.13287   5.14061   5.15209   5.18064
 Alpha virt. eigenvalues --    5.18307   5.19204   5.20404   5.20483   5.21304
 Alpha virt. eigenvalues --    5.23368   5.24032   5.26867   5.28433   5.30338
 Alpha virt. eigenvalues --    5.31280   5.35773   5.36659   5.38927   5.39541
 Alpha virt. eigenvalues --    5.41766   5.42802   5.45181   5.46808   5.48993
 Alpha virt. eigenvalues --    5.51057   5.56364   6.02944   6.05119   6.16295
 Alpha virt. eigenvalues --    6.27842   6.28584   6.31073   6.32479   6.38795
 Alpha virt. eigenvalues --    6.40705   6.42188   6.44325   6.45485   6.50569
 Alpha virt. eigenvalues --    6.51891   6.53124   6.54690   6.57232   6.60026
 Alpha virt. eigenvalues --    6.65521   6.67263   6.68804   6.69116   6.71985
 Alpha virt. eigenvalues --    6.73507   6.76386   6.78437   6.80261   6.80964
 Alpha virt. eigenvalues --    6.87788   6.88245   6.91617   6.97783   7.13199
 Alpha virt. eigenvalues --    7.66688   7.69754   7.92770   7.99477   8.05828
 Alpha virt. eigenvalues --    8.08188  16.60516  16.68436  22.08511  22.10208
 Alpha virt. eigenvalues --   31.77696  31.78372  43.37157  43.46826  43.51979
 Alpha virt. eigenvalues --   43.57033  43.62410  43.69034
  Beta  occ. eigenvalues -- -235.88590 -77.49620 -77.46017 -27.63495 -23.63481
  Beta  occ. eigenvalues --  -23.63188 -23.63146 -19.38882 -19.36136 -19.35907
  Beta  occ. eigenvalues --  -19.34589 -19.32476 -19.30261 -14.58444 -14.57904
  Beta  occ. eigenvalues --  -10.43860 -10.41956  -6.90028  -6.86448  -5.02095
  Beta  occ. eigenvalues --   -5.01940  -5.01869  -4.98514  -4.98377  -4.98268
  Beta  occ. eigenvalues --   -3.27279  -2.10394  -2.09665  -2.09590  -1.24311
  Beta  occ. eigenvalues --   -1.20924  -1.18745  -1.15311  -1.14443  -1.10586
  Beta  occ. eigenvalues --   -1.08976  -1.08079  -0.87634  -0.85395  -0.77356
  Beta  occ. eigenvalues --   -0.73952  -0.71301  -0.69533  -0.69101  -0.66044
  Beta  occ. eigenvalues --   -0.64567  -0.63470  -0.62398  -0.61722  -0.59929
  Beta  occ. eigenvalues --   -0.59413  -0.57714  -0.56402  -0.56152  -0.55851
  Beta  occ. eigenvalues --   -0.53237  -0.52556  -0.51119  -0.50226  -0.49837
  Beta  occ. eigenvalues --   -0.49469  -0.48650  -0.48494  -0.47150  -0.46271
  Beta  occ. eigenvalues --   -0.44152  -0.43530
  Beta virt. eigenvalues --   -0.21517  -0.18941  -0.18390  -0.17388  -0.16471
  Beta virt. eigenvalues --   -0.13114  -0.12141  -0.10002  -0.09120  -0.08105
  Beta virt. eigenvalues --   -0.07371  -0.06745  -0.05657  -0.05255  -0.04604
  Beta virt. eigenvalues --   -0.03591  -0.03112  -0.02987  -0.02660  -0.02039
  Beta virt. eigenvalues --   -0.00601  -0.00046   0.00412   0.01114   0.01757
  Beta virt. eigenvalues --    0.02736   0.03344   0.04038   0.04813   0.07034
  Beta virt. eigenvalues --    0.07299   0.08851   0.09420   0.10571   0.11462
  Beta virt. eigenvalues --    0.12225   0.13535   0.14330   0.15048   0.15875
  Beta virt. eigenvalues --    0.15908   0.16524   0.17439   0.17820   0.18699
  Beta virt. eigenvalues --    0.19272   0.20429   0.20959   0.21903   0.22656
  Beta virt. eigenvalues --    0.24361   0.24494   0.25434   0.25886   0.26234
  Beta virt. eigenvalues --    0.27048   0.27713   0.28422   0.28773   0.29097
  Beta virt. eigenvalues --    0.30407   0.30924   0.32422   0.32462   0.32603
  Beta virt. eigenvalues --    0.34104   0.34424   0.35231   0.35612   0.37312
  Beta virt. eigenvalues --    0.38194   0.38665   0.39594   0.40379   0.41400
  Beta virt. eigenvalues --    0.41579   0.43155   0.44015   0.44308   0.45182
  Beta virt. eigenvalues --    0.46696   0.49020   0.49581   0.50703   0.51267
  Beta virt. eigenvalues --    0.51895   0.52910   0.55279   0.57136   0.58198
  Beta virt. eigenvalues --    0.58616   0.58940   0.60397   0.61314   0.62086
  Beta virt. eigenvalues --    0.62540   0.64524   0.64624   0.67793   0.68964
  Beta virt. eigenvalues --    0.69742   0.70579   0.71830   0.71985   0.73603
  Beta virt. eigenvalues --    0.74081   0.76767   0.77265   0.78804   0.80587
  Beta virt. eigenvalues --    0.81450   0.82770   0.83179   0.86378   0.88332
  Beta virt. eigenvalues --    0.89505   0.91887   0.93145   0.95020   0.95532
  Beta virt. eigenvalues --    0.99641   1.01447   1.04230   1.04780   1.06620
  Beta virt. eigenvalues --    1.07793   1.10169   1.10572   1.13426   1.14382
  Beta virt. eigenvalues --    1.14781   1.15631   1.16698   1.19001   1.20007
  Beta virt. eigenvalues --    1.20355   1.20866   1.22456   1.22926   1.24098
  Beta virt. eigenvalues --    1.26197   1.27752   1.28161   1.28268   1.29782
  Beta virt. eigenvalues --    1.30866   1.32392   1.33138   1.33473   1.34278
  Beta virt. eigenvalues --    1.34925   1.35228   1.36168   1.40170   1.41304
  Beta virt. eigenvalues --    1.43809   1.43864   1.46876   1.48099   1.49374
  Beta virt. eigenvalues --    1.50426   1.51663   1.52472   1.55689   1.57707
  Beta virt. eigenvalues --    1.59009   1.60370   1.61030   1.64926   1.65615
  Beta virt. eigenvalues --    1.66183   1.67107   1.68621   1.69918   1.70925
  Beta virt. eigenvalues --    1.72252   1.72876   1.74354   1.74649   1.75538
  Beta virt. eigenvalues --    1.76120   1.77065   1.78650   1.79482   1.80841
  Beta virt. eigenvalues --    1.81117   1.81548   1.82435   1.83855   1.85962
  Beta virt. eigenvalues --    1.86373   1.87172   1.87977   1.89510   1.90850
  Beta virt. eigenvalues --    1.92292   1.92441   1.94869   1.95616   1.96616
  Beta virt. eigenvalues --    1.97409   1.99264   2.00777   2.02173   2.03689
  Beta virt. eigenvalues --    2.05415   2.06214   2.07280   2.08122   2.08998
  Beta virt. eigenvalues --    2.09997   2.10853   2.12633   2.12754   2.14775
  Beta virt. eigenvalues --    2.14855   2.16469   2.18211   2.18865   2.20662
  Beta virt. eigenvalues --    2.21937   2.23517   2.26374   2.27592   2.29992
  Beta virt. eigenvalues --    2.31852   2.32977   2.34100   2.36075   2.36754
  Beta virt. eigenvalues --    2.37884   2.41595   2.41709   2.44352   2.45207
  Beta virt. eigenvalues --    2.46788   2.49978   2.50190   2.51656   2.53250
  Beta virt. eigenvalues --    2.53873   2.54552   2.56627   2.58582   2.60026
  Beta virt. eigenvalues --    2.63171   2.66465   2.71529   2.72314   2.74169
  Beta virt. eigenvalues --    2.76965   2.78431   2.80238   2.82377   2.83231
  Beta virt. eigenvalues --    2.84417   2.85639   2.88700   2.90096   2.91374
  Beta virt. eigenvalues --    2.92299   2.94504   2.96066   2.96891   2.99345
  Beta virt. eigenvalues --    3.00286   3.02679   3.03544   3.04917   3.05888
  Beta virt. eigenvalues --    3.07561   3.11544   3.12012   3.14027   3.14302
  Beta virt. eigenvalues --    3.15801   3.16235   3.18954   3.22158   3.23439
  Beta virt. eigenvalues --    3.26145   3.28315   3.29556   3.32092   3.33602
  Beta virt. eigenvalues --    3.34295   3.34585   3.34866   3.35104   3.35971
  Beta virt. eigenvalues --    3.37272   3.38306   3.40220   3.42420   3.45880
  Beta virt. eigenvalues --    3.51030   3.53216   3.54889   3.58059   3.59071
  Beta virt. eigenvalues --    3.63202   3.64201   3.65472   3.66747   3.67957
  Beta virt. eigenvalues --    3.74446   3.78510   3.80488   3.83181   3.86639
  Beta virt. eigenvalues --    3.90525   3.91347   3.92658   3.95855   4.10747
  Beta virt. eigenvalues --    4.11889   4.14524   4.15762   4.45217   4.45784
  Beta virt. eigenvalues --    4.52447   4.52787   4.69894   4.71094   4.73172
  Beta virt. eigenvalues --    4.74347   4.82034   4.82836   4.86718   4.90543
  Beta virt. eigenvalues --    4.91599   4.96364   4.96965   4.98424   4.99572
  Beta virt. eigenvalues --    5.00087   5.00499   5.00838   5.02014   5.02558
  Beta virt. eigenvalues --    5.03520   5.03682   5.04793   5.05186   5.06086
  Beta virt. eigenvalues --    5.06814   5.07476   5.08730   5.10310   5.11601
  Beta virt. eigenvalues --    5.12300   5.13360   5.14168   5.15314   5.18093
  Beta virt. eigenvalues --    5.18310   5.19143   5.20384   5.20522   5.21392
  Beta virt. eigenvalues --    5.23452   5.24093   5.26924   5.28532   5.30386
  Beta virt. eigenvalues --    5.31322   5.35815   5.36780   5.38965   5.39662
  Beta virt. eigenvalues --    5.41842   5.42903   5.45212   5.46811   5.49060
  Beta virt. eigenvalues --    5.51107   5.56447   6.02955   6.05129   6.16332
  Beta virt. eigenvalues --    6.28259   6.28637   6.31235   6.32531   6.39220
  Beta virt. eigenvalues --    6.41000   6.42318   6.44578   6.45763   6.50824
  Beta virt. eigenvalues --    6.52169   6.53266   6.54923   6.57532   6.60162
  Beta virt. eigenvalues --    6.65707   6.67328   6.68964   6.69379   6.72357
  Beta virt. eigenvalues --    6.73786   6.76575   6.78833   6.80586   6.81238
  Beta virt. eigenvalues --    6.87825   6.88268   6.91629   6.97797   7.13209
  Beta virt. eigenvalues --    7.66734   7.69795   7.92795   7.99497   8.05872
  Beta virt. eigenvalues --    8.08245  16.60531  16.68447  22.08507  22.10202
  Beta virt. eigenvalues --   31.77674  31.78360  43.37168  43.46874  43.52107
  Beta virt. eigenvalues --   43.57038  43.62576  43.69041
          Condensed to atoms (all electrons):
               1          2          3          4          5          6
     1  N    6.627257   0.143995  -0.037889   0.001497  -0.031748   0.001922
     2  C    0.143995   5.033332   0.331979  -0.025760  -0.024441  -0.036139
     3  P   -0.037889   0.331979  12.651596   0.506530   0.397243   0.398722
     4  O    0.001497  -0.025760   0.506530   8.125203  -0.040076  -0.030528
     5  O   -0.031748  -0.024441   0.397243  -0.040076   8.164239  -0.023683
     6  O    0.001922  -0.036139   0.398722  -0.030528  -0.023683   7.885239
     7  Mn   0.151288  -0.016794  -0.012466   0.000103   0.161039   0.000910
     8  H   -0.000152   0.003597  -0.007893   0.000923   0.001088   0.291898
     9  H    0.353810  -0.018402  -0.000657   0.001410   0.000641   0.000029
    10  H   -0.028792   0.408183  -0.023755  -0.000686   0.002483   0.002117
    11  H   -0.025457   0.412279  -0.026543   0.001614  -0.001971   0.002846
    12  H    0.358348  -0.030079   0.007136  -0.000184  -0.000443  -0.000103
    13  N   -0.003024   0.000316   0.001336  -0.000089  -0.036263  -0.000014
    14  C    0.000193   0.000027  -0.000356  -0.000540   0.003619   0.000006
    15  P    0.001583  -0.000437   0.004191   0.005596  -0.000266   0.000074
    16  O   -0.000043  -0.000473   0.002740  -0.067664  -0.001303  -0.000076
    17  O   -0.029635   0.003055  -0.002601  -0.002011  -0.009495   0.000009
    18  O   -0.000007   0.000003   0.000052  -0.000064   0.000015  -0.000000
    19  H    0.000005  -0.000001  -0.000007   0.000018   0.000006   0.000000
    20  H    0.000040   0.000188   0.000272   0.000042   0.005415  -0.000012
    21  H    0.000003  -0.000006   0.000068   0.000044  -0.000174  -0.000000
    22  H   -0.000012   0.000003   0.000036   0.000002  -0.000024   0.000000
    23  H   -0.000052   0.000014  -0.000076  -0.000007   0.001137   0.000000
    24  H   -0.000098   0.002249  -0.010045   0.102521   0.004005  -0.000107
               7          8          9         10         11         12
     1  N    0.151288  -0.000152   0.353810  -0.028792  -0.025457   0.358348
     2  C   -0.016794   0.003597  -0.018402   0.408183   0.412279  -0.030079
     3  P   -0.012466  -0.007893  -0.000657  -0.023755  -0.026543   0.007136
     4  O    0.000103   0.000923   0.001410  -0.000686   0.001614  -0.000184
     5  O    0.161039   0.001088   0.000641   0.002483  -0.001971  -0.000443
     6  O    0.000910   0.291898   0.000029   0.002117   0.002846  -0.000103
     7  Mn  23.716395  -0.000139  -0.011749   0.004695  -0.002318  -0.007739
     8  H   -0.000139   0.332307  -0.000001  -0.000096  -0.000385   0.000011
     9  H   -0.011749  -0.000001   0.400143  -0.006534   0.003531  -0.017493
    10  H    0.004695  -0.000096  -0.006534   0.497782  -0.015364  -0.003153
    11  H   -0.002318  -0.000385   0.003531  -0.015364   0.487779  -0.007662
    12  H   -0.007739   0.000011  -0.017493  -0.003153  -0.007662   0.419647
    13  N    0.142825   0.000005   0.000021   0.000003  -0.000029  -0.000052
    14  C   -0.012651  -0.000001   0.000124  -0.000006   0.000004   0.000011
    15  P   -0.013373  -0.000010   0.000286   0.000013   0.000046  -0.000054
    16  O   -0.000043  -0.000007  -0.000014   0.000020   0.000007  -0.000006
    17  O    0.144537   0.000004   0.003700  -0.000020  -0.000052   0.000629
    18  O    0.000721   0.000000  -0.000003  -0.000000   0.000000   0.000000
    19  H   -0.000147  -0.000000   0.000004  -0.000000   0.000000  -0.000000
    20  H   -0.011068   0.000004   0.000017  -0.000004  -0.000002   0.000015
    21  H    0.004245  -0.000000  -0.000003   0.000000   0.000000  -0.000000
    22  H   -0.002037   0.000000   0.000000   0.000000  -0.000000   0.000000
    23  H   -0.006978  -0.000000   0.000011  -0.000000   0.000000   0.000003
    24  H   -0.000167   0.000148  -0.000003  -0.000118  -0.000067   0.000034
              13         14         15         16         17         18
     1  N   -0.003024   0.000193   0.001583  -0.000043  -0.029635  -0.000007
     2  C    0.000316   0.000027  -0.000437  -0.000473   0.003055   0.000003
     3  P    0.001336  -0.000356   0.004191   0.002740  -0.002601   0.000052
     4  O   -0.000089  -0.000540   0.005596  -0.067664  -0.002011  -0.000064
     5  O   -0.036263   0.003619  -0.000266  -0.001303  -0.009495   0.000015
     6  O   -0.000014   0.000006   0.000074  -0.000076   0.000009  -0.000000
     7  Mn   0.142825  -0.012651  -0.013373  -0.000043   0.144537   0.000721
     8  H    0.000005  -0.000001  -0.000010  -0.000007   0.000004   0.000000
     9  H    0.000021   0.000124   0.000286  -0.000014   0.003700  -0.000003
    10  H    0.000003  -0.000006   0.000013   0.000020  -0.000020  -0.000000
    11  H   -0.000029   0.000004   0.000046   0.000007  -0.000052   0.000000
    12  H   -0.000052   0.000011  -0.000054  -0.000006   0.000629   0.000000
    13  N    6.625536   0.167527  -0.042542   0.001002  -0.029964   0.001588
    14  C    0.167527   4.970578   0.337197  -0.019965  -0.018812  -0.030524
    15  P   -0.042542   0.337197  12.687589   0.400374   0.423677   0.409405
    16  O    0.001002  -0.019965   0.400374   7.968059  -0.030055  -0.026529
    17  O   -0.029964  -0.018812   0.423677  -0.030055   8.092825  -0.021543
    18  O    0.001588  -0.030524   0.409405  -0.026529  -0.021543   7.848388
    19  H   -0.000152   0.003461  -0.006812   0.001230   0.000533   0.293947
    20  H    0.353460  -0.018184   0.000223   0.000409   0.000579   0.000009
    21  H   -0.028769   0.408739  -0.023414  -0.000386   0.002007   0.001688
    22  H   -0.026039   0.415657  -0.028982   0.001376  -0.001637   0.002624
    23  H    0.357503  -0.029958   0.007253  -0.000194  -0.000477  -0.000079
    24  H    0.000031   0.001816  -0.007101   0.238998   0.002556  -0.000171
              19         20         21         22         23         24
     1  N    0.000005   0.000040   0.000003  -0.000012  -0.000052  -0.000098
     2  C   -0.000001   0.000188  -0.000006   0.000003   0.000014   0.002249
     3  P   -0.000007   0.000272   0.000068   0.000036  -0.000076  -0.010045
     4  O    0.000018   0.000042   0.000044   0.000002  -0.000007   0.102521
     5  O    0.000006   0.005415  -0.000174  -0.000024   0.001137   0.004005
     6  O    0.000000  -0.000012  -0.000000   0.000000   0.000000  -0.000107
     7  Mn  -0.000147  -0.011068   0.004245  -0.002037  -0.006978  -0.000167
     8  H   -0.000000   0.000004  -0.000000   0.000000  -0.000000   0.000148
     9  H    0.000004   0.000017  -0.000003   0.000000   0.000011  -0.000003
    10  H   -0.000000  -0.000004   0.000000   0.000000  -0.000000  -0.000118
    11  H    0.000000  -0.000002   0.000000  -0.000000   0.000000  -0.000067
    12  H   -0.000000   0.000015  -0.000000   0.000000   0.000003   0.000034
    13  N   -0.000152   0.353460  -0.028769  -0.026039   0.357503   0.000031
    14  C    0.003461  -0.018184   0.408739   0.415657  -0.029958   0.001816
    15  P   -0.006812   0.000223  -0.023414  -0.028982   0.007253  -0.007101
    16  O    0.001230   0.000409  -0.000386   0.001376  -0.000194   0.238998
    17  O    0.000533   0.000579   0.002007  -0.001637  -0.000477   0.002556
    18  O    0.293947   0.000009   0.001688   0.002624  -0.000079  -0.000171
    19  H    0.321560   0.000006  -0.000192  -0.000288   0.000012   0.000215
    20  H    0.000006   0.391337  -0.006827   0.003108  -0.016505   0.000118
    21  H   -0.000192  -0.006827   0.486498  -0.014357  -0.002273  -0.000205
    22  H   -0.000288   0.003108  -0.014357   0.480772  -0.008173  -0.000047
    23  H    0.000012  -0.016505  -0.002273  -0.008173   0.417405   0.000037
    24  H    0.000215   0.000118  -0.000205  -0.000047   0.000037   0.256077
          Atomic-Atomic Spin Densities.
               1          2          3          4          5          6
     1  N    0.019643  -0.001737  -0.000946  -0.000148  -0.007160  -0.000041
     2  C   -0.001737   0.001429   0.000429   0.000168   0.000190   0.000307
     3  P   -0.000946   0.000429   0.015863  -0.002734   0.004231  -0.001387
     4  O   -0.000148   0.000168  -0.002734   0.004813  -0.000218   0.000195
     5  O   -0.007160   0.000190   0.004231  -0.000218   0.132030  -0.000067
     6  O   -0.000041   0.000307  -0.001387   0.000195  -0.000067   0.003119
     7  Mn  -0.008645  -0.004394  -0.009995   0.001463  -0.064215  -0.000142
     8  H    0.000010  -0.000053   0.000105  -0.000017   0.000045  -0.000048
     9  H   -0.000095  -0.000160   0.000500  -0.000051   0.000230  -0.000002
    10  H    0.000313  -0.000630  -0.000468   0.000026  -0.000030   0.000015
    11  H   -0.000215  -0.000477   0.000031   0.000013   0.000271  -0.000010
    12  H   -0.001635   0.000873   0.000153  -0.000012   0.000157  -0.000004
    13  N    0.000764  -0.000085  -0.000165  -0.000012  -0.006584  -0.000003
    14  C   -0.000065   0.000019   0.000089  -0.000006   0.000847   0.000001
    15  P   -0.000279   0.000089  -0.000179  -0.000251  -0.001287  -0.000010
    16  O   -0.000007  -0.000002  -0.000035   0.000075   0.000166   0.000001
    17  O   -0.005491   0.000491  -0.000733   0.000172  -0.002030  -0.000001
    18  O   -0.000001   0.000000  -0.000004   0.000000   0.000001   0.000000
    19  H    0.000000  -0.000000   0.000002  -0.000002   0.000001  -0.000000
    20  H   -0.000031   0.000008   0.000043  -0.000014   0.001631   0.000006
    21  H    0.000003  -0.000000  -0.000005  -0.000000  -0.000077  -0.000000
    22  H    0.000001  -0.000000  -0.000002  -0.000000  -0.000008  -0.000000
    23  H   -0.000040   0.000007   0.000021  -0.000000   0.000166   0.000000
    24  H   -0.000036   0.000028  -0.000136   0.000216   0.000121   0.000018
               7          8          9         10         11         12
     1  N   -0.008645   0.000010  -0.000095   0.000313  -0.000215  -0.001635
     2  C   -0.004394  -0.000053  -0.000160  -0.000630  -0.000477   0.000873
     3  P   -0.009995   0.000105   0.000500  -0.000468   0.000031   0.000153
     4  O    0.001463  -0.000017  -0.000051   0.000026   0.000013  -0.000012
     5  O   -0.064215   0.000045   0.000230  -0.000030   0.000271   0.000157
     6  O   -0.000142  -0.000048  -0.000002   0.000015  -0.000010  -0.000004
     7  Mn   5.061449   0.000010  -0.004193   0.000701   0.000476  -0.003073
     8  H    0.000010   0.000253  -0.000000  -0.000001  -0.000006  -0.000000
     9  H   -0.004193  -0.000000   0.005489  -0.000299   0.000084  -0.000290
    10  H    0.000701  -0.000001  -0.000299   0.000663  -0.000072  -0.000195
    11  H    0.000476  -0.000006   0.000084  -0.000072   0.001701  -0.000201
    12  H   -0.003073  -0.000000  -0.000290  -0.000195  -0.000201   0.007622
    13  N   -0.008956   0.000000  -0.000033   0.000002  -0.000001  -0.000039
    14  C   -0.002759  -0.000000   0.000010  -0.000000   0.000000   0.000005
    15  P   -0.011498   0.000002   0.000067  -0.000003  -0.000003   0.000023
    16  O    0.001197  -0.000001  -0.000011   0.000000   0.000000  -0.000000
    17  O   -0.056725   0.000001   0.001088  -0.000052  -0.000006   0.000132
    18  O   -0.000032  -0.000000   0.000003  -0.000000  -0.000000   0.000000
    19  H   -0.000013   0.000000   0.000000   0.000000   0.000000   0.000000
    20  H   -0.004235  -0.000000   0.000007  -0.000001  -0.000000   0.000005
    21  H    0.000713   0.000000  -0.000001   0.000000  -0.000000  -0.000000
    22  H    0.000365   0.000000   0.000000  -0.000000  -0.000000  -0.000000
    23  H   -0.002668   0.000000   0.000004  -0.000000  -0.000000   0.000001
    24  H   -0.000283  -0.000007   0.000012  -0.000003  -0.000001   0.000003
              13         14         15         16         17         18
     1  N    0.000764  -0.000065  -0.000279  -0.000007  -0.005491  -0.000001
     2  C   -0.000085   0.000019   0.000089  -0.000002   0.000491   0.000000
     3  P   -0.000165   0.000089  -0.000179  -0.000035  -0.000733  -0.000004
     4  O   -0.000012  -0.000006  -0.000251   0.000075   0.000172   0.000000
     5  O   -0.006584   0.000847  -0.001287   0.000166  -0.002030   0.000001
     6  O   -0.000003   0.000001  -0.000010   0.000001  -0.000001   0.000000
     7  Mn  -0.008956  -0.002759  -0.011498   0.001197  -0.056725  -0.000032
     8  H    0.000000  -0.000000   0.000002  -0.000001   0.000001  -0.000000
     9  H   -0.000033   0.000010   0.000067  -0.000011   0.001088   0.000003
    10  H    0.000002  -0.000000  -0.000003   0.000000  -0.000052  -0.000000
    11  H   -0.000001   0.000000  -0.000003   0.000000  -0.000006  -0.000000
    12  H   -0.000039   0.000005   0.000023  -0.000000   0.000132   0.000000
    13  N    0.022039  -0.002436  -0.001797  -0.000086  -0.005685  -0.000044
    14  C   -0.002436   0.003400  -0.000089   0.000235  -0.000238   0.000379
    15  P   -0.001797  -0.000089   0.017875  -0.001650   0.004198  -0.001958
    16  O   -0.000086   0.000235  -0.001650   0.002749   0.000027   0.000037
    17  O   -0.005685  -0.000238   0.004198   0.000027   0.104395  -0.000178
    18  O   -0.000044   0.000379  -0.001958   0.000037  -0.000178   0.003610
    19  H    0.000005  -0.000035   0.000172   0.000015   0.000016  -0.000111
    20  H   -0.000225  -0.000046   0.000399  -0.000045   0.000151   0.000001
    21  H    0.000341  -0.001028  -0.000566   0.000030  -0.000031   0.000030
    22  H   -0.000078  -0.000372  -0.000105   0.000010   0.000123   0.000018
    23  H   -0.001594   0.000873   0.000244  -0.000008   0.000099  -0.000003
    24  H   -0.000054   0.000079  -0.000336   0.000220   0.000109   0.000021
              19         20         21         22         23         24
     1  N    0.000000  -0.000031   0.000003   0.000001  -0.000040  -0.000036
     2  C   -0.000000   0.000008  -0.000000  -0.000000   0.000007   0.000028
     3  P    0.000002   0.000043  -0.000005  -0.000002   0.000021  -0.000136
     4  O   -0.000002  -0.000014  -0.000000  -0.000000  -0.000000   0.000216
     5  O    0.000001   0.001631  -0.000077  -0.000008   0.000166   0.000121
     6  O   -0.000000   0.000006  -0.000000  -0.000000   0.000000   0.000018
     7  Mn  -0.000013  -0.004235   0.000713   0.000365  -0.002668  -0.000283
     8  H    0.000000  -0.000000   0.000000   0.000000   0.000000  -0.000007
     9  H    0.000000   0.000007  -0.000001   0.000000   0.000004   0.000012
    10  H    0.000000  -0.000001   0.000000  -0.000000  -0.000000  -0.000003
    11  H    0.000000  -0.000000  -0.000000  -0.000000  -0.000000  -0.000001
    12  H    0.000000   0.000005  -0.000000  -0.000000   0.000001   0.000003
    13  N    0.000005  -0.000225   0.000341  -0.000078  -0.001594  -0.000054
    14  C   -0.000035  -0.000046  -0.001028  -0.000372   0.000873   0.000079
    15  P    0.000172   0.000399  -0.000566  -0.000105   0.000244  -0.000336
    16  O    0.000015  -0.000045   0.000030   0.000010  -0.000008   0.000220
    17  O    0.000016   0.000151  -0.000031   0.000123   0.000099   0.000109
    18  O   -0.000111   0.000001   0.000030   0.000018  -0.000003   0.000021
    19  H    0.000110   0.000000  -0.000004  -0.000003   0.000000  -0.000004
    20  H    0.000000   0.004842  -0.000358   0.000085  -0.000195   0.000019
    21  H   -0.000004  -0.000358   0.001438  -0.000028  -0.000226  -0.000014
    22  H   -0.000003   0.000085  -0.000028   0.001300  -0.000204  -0.000002
    23  H    0.000000  -0.000195  -0.000226  -0.000204   0.006499   0.000003
    24  H   -0.000004   0.000019  -0.000014  -0.000002   0.000003   0.000169
 Mulliken charges and spin densities:
               1          2
     1  N   -0.483031  -0.005838
     2  C   -0.186686  -0.003499
     3  P    0.820386   0.004677
     4  O   -0.577894   0.003673
     5  O   -0.571043   0.058412
     6  O   -0.493110   0.001947
     7  Mn   0.770909   4.884548
     8  H    0.378698   0.000291
     9  H    0.291130   0.002359
    10  H    0.163233  -0.000033
    11  H    0.171742   0.001583
    12  H    0.281134   0.003524
    13  N   -0.484217  -0.004725
    14  C   -0.177962  -0.001136
    15  P    0.845486   0.003061
    16  O   -0.467455   0.002917
    17  O   -0.527811   0.039832
    18  O   -0.479521   0.001769
    19  H    0.386603   0.000148
    20  H    0.297361   0.002047
    21  H    0.173314   0.000218
    22  H    0.178015   0.001101
    23  H    0.281395   0.002981
    24  H    0.409325   0.000144
 Sum of Mulliken charges =   1.00000   5.00000
 Mulliken charges and spin densities with hydrogens summed into heavy atoms:
               1          2
     1  N    0.089232   0.000045
     2  C    0.148289  -0.001949
     3  P    0.820386   0.004677
     4  O   -0.577894   0.003673
     5  O   -0.571043   0.058412
     6  O   -0.114411   0.002238
     7  Mn   0.770909   4.884548
    13  N    0.094539   0.000303
    14  C    0.173366   0.000183
    15  P    0.845486   0.003061
    16  O   -0.058130   0.003060
    17  O   -0.527811   0.039832
    18  O   -0.092917   0.001917
 Electronic spatial extent (au):  <R**2>=           3236.7053
 Charge=              1.0000 electrons
 Dipole moment (field-independent basis, Debye):
    X=              1.3368    Y=             -5.1804    Z=             -0.2665  Tot=              5.3567
 Quadrupole moment (field-independent basis, Debye-Ang):
   XX=            -64.2854   YY=            -73.4162   ZZ=            -79.9765
   XY=              1.5689   XZ=             11.5850   YZ=             -0.5078
 Traceless Quadrupole moment (field-independent basis, Debye-Ang):
   XX=              8.2740   YY=             -0.8569   ZZ=             -7.4171
   XY=              1.5689   XZ=             11.5850   YZ=             -0.5078
 Octapole moment (field-independent basis, Debye-Ang**2):
  XXX=              7.4086  YYY=            -41.4836  ZZZ=             -3.0102  XYY=             -1.7645
  XXY=             15.8996  XXZ=             -8.6561  XZZ=              7.7274  YZZ=            -12.3120
  YYZ=              2.0306  XYZ=            -44.8791
 Hexadecapole moment (field-independent basis, Debye-Ang**3):
 XXXX=          -2168.2757 YYYY=           -719.8296 ZZZZ=           -493.3819 XXXY=              8.6375
 XXXZ=             20.5761 YYYX=             -8.1380 YYYZ=              5.1325 ZZZX=             35.3378
 ZZZY=             -6.2355 XXYY=           -369.9986 XXZZ=           -409.3564 YYZZ=           -170.8896
 XXYZ=            -12.6667 YYXZ=            -38.9092 ZZXY=             11.6850
 N-N= 1.613281455339D+03 E-N=-9.082172858633D+03  KE= 2.471285894419D+03
                          Isotropic Fermi Contact Couplings
        Atom                 a.u.       MegaHertz       Gauss      10(-4) cm-1
     1  N(14)              0.02447       1.58143       0.56429       0.52751
     2  C(13)             -0.00073      -0.16445      -0.05868      -0.05486
     3  P(31)              0.00739       2.67778       0.95550       0.89321
     4  O(17)              0.00035      -0.04261      -0.01520      -0.01421
     5  O(17)              0.08173      -9.90925      -3.53587      -3.30537
     6  O(17)              0.00293      -0.35476      -0.12659      -0.11833
     7  Mn(55)             1.31578     290.87895     103.79284      97.02677
     8  H(1)               0.00002       0.02210       0.00788       0.00737
     9  H(1)               0.00124       1.10899       0.39572       0.36992
    10  H(1)              -0.00019      -0.16802      -0.05996      -0.05605
    11  H(1)              -0.00004      -0.03157      -0.01126      -0.01053
    12  H(1)               0.00197       1.75978       0.62793       0.58700
    13  N(14)              0.02744       1.77321       0.63273       0.59148
    14  C(13)             -0.00036      -0.08003      -0.02856      -0.02669
    15  P(31)              0.00802       2.90626       1.03703       0.96942
    16  O(17)              0.00011      -0.01334      -0.00476      -0.00445
    17  O(17)              0.08183      -9.92045      -3.53986      -3.30911
    18  O(17)              0.00210      -0.25463      -0.09086      -0.08494
    19  H(1)              -0.00004      -0.03280      -0.01170      -0.01094
    20  H(1)               0.00108       0.96748       0.34522       0.32272
    21  H(1)              -0.00008      -0.06739      -0.02405      -0.02248
    22  H(1)              -0.00001      -0.01237      -0.00441      -0.00412
    23  H(1)               0.00168       1.49993       0.53521       0.50032
    24  H(1)              -0.00001      -0.01211      -0.00432      -0.00404
 --------------------------------------------------------
       Center         ----  Spin Dipole Couplings  ----
                      3XX-RR        3YY-RR        3ZZ-RR
 --------------------------------------------------------
     1   Atom        0.029755     -0.065727      0.035973
     2   Atom        0.029552     -0.013411     -0.016141
     3   Atom       -0.001819      0.012645     -0.010825
     4   Atom       -0.015018      0.023357     -0.008339
     5   Atom        0.010637     -0.006944     -0.003693
     6   Atom        0.012022     -0.001903     -0.010119
     7   Atom        0.050259     -0.104081      0.053822
     8   Atom        0.001302      0.003837     -0.005138
     9   Atom       -0.019037     -0.030987      0.050024
    10   Atom        0.009168     -0.005027     -0.004140
    11   Atom        0.031103     -0.015655     -0.015448
    12   Atom        0.013107     -0.024979      0.011873
    13   Atom        0.025112     -0.065412      0.040300
    14   Atom        0.027082     -0.013220     -0.013862
    15   Atom        0.000788      0.003790     -0.004578
    16   Atom       -0.011465      0.020538     -0.009073
    17   Atom        0.021693     -0.012766     -0.008927
    18   Atom        0.012401     -0.002841     -0.009560
    19   Atom        0.002234      0.002471     -0.004705
    20   Atom       -0.021861     -0.032607      0.054469
    21   Atom        0.007443     -0.004476     -0.002968
    22   Atom        0.026797     -0.014040     -0.012757
    23   Atom        0.010579     -0.024171      0.013592
    24   Atom       -0.016021      0.033339     -0.017317
 --------------------------------------------------------
                        XY            XZ            YZ
 --------------------------------------------------------
     1   Atom       -0.013346      0.098227     -0.015622
     2   Atom       -0.026981      0.018428     -0.005862
     3   Atom       -0.043262      0.003114      0.003055
     4   Atom       -0.015668     -0.001234     -0.002479
     5   Atom       -0.052697     -0.149502      0.104622
     6   Atom       -0.016771      0.001072      0.001738
     7   Atom       -0.016433     -0.138878      0.032811
     8   Atom       -0.008303     -0.002613      0.003165
     9   Atom       -0.012145      0.041274     -0.028568
    10   Atom       -0.011791      0.012229     -0.006556
    11   Atom       -0.007113      0.007470     -0.000897
    12   Atom        0.012743      0.043549      0.012518
    13   Atom        0.012533      0.097563      0.015398
    14   Atom        0.024881      0.019670      0.006855
    15   Atom        0.041176      0.001683     -0.004319
    16   Atom        0.015223     -0.001777      0.002003
    17   Atom        0.061485     -0.131522     -0.083428
    18   Atom        0.016649      0.001998     -0.000162
    19   Atom        0.008238     -0.003171     -0.003463
    20   Atom        0.011003      0.040400      0.028694
    21   Atom        0.011579      0.012459      0.007352
    22   Atom        0.006402      0.009452      0.001267
    23   Atom       -0.012277      0.042292     -0.012671
    24   Atom        0.004369     -0.000498     -0.000364
 --------------------------------------------------------


 ---------------------------------------------------------------------------------
              Anisotropic Spin Dipole Couplings in Principal Axis System
 ---------------------------------------------------------------------------------

       Atom             a.u.   MegaHertz   Gauss  10(-4) cm-1        Axes

              Baa    -0.0684    -2.638    -0.941    -0.880 -0.2181  0.9140  0.3421
     1 N(14)  Bbb    -0.0649    -2.502    -0.893    -0.834  0.6885  0.3925 -0.6099
              Bcc     0.1333     5.139     1.834     1.714  0.6917 -0.1025  0.7149
 
              Baa    -0.0276    -3.704    -1.322    -1.236  0.4934  0.7737 -0.3974
     2 C(13)  Bbb    -0.0207    -2.772    -0.989    -0.925 -0.0591  0.4857  0.8721
              Bcc     0.0483     6.476     2.311     2.160  0.8678 -0.4068  0.2854
 
              Baa    -0.0391    -8.457    -3.018    -2.821  0.7540  0.6391 -0.1520
     3 P(31)  Bbb    -0.0102    -2.196    -0.784    -0.733  0.1194  0.0942  0.9884
              Bcc     0.0493    10.653     3.801     3.553 -0.6460  0.7633  0.0053
 
              Baa    -0.0209     1.514     0.540     0.505  0.9282  0.3372  0.1575
     4 O(17)  Bbb    -0.0081     0.588     0.210     0.196 -0.1656 -0.0048  0.9862
              Bcc     0.0290    -2.101    -0.750    -0.701 -0.3333  0.9414 -0.0514
 
              Baa    -0.1598    11.563     4.126     3.857  0.5651 -0.3244  0.7586
     5 O(17)  Bbb    -0.0505     3.655     1.304     1.219  0.5589  0.8268 -0.0628
              Bcc     0.2103   -15.218    -5.430    -5.076 -0.6068  0.4595  0.6485
 
              Baa    -0.0141     1.023     0.365     0.341  0.4943  0.7420 -0.4529
     6 O(17)  Bbb    -0.0091     0.657     0.234     0.219  0.2532  0.3756  0.8916
              Bcc     0.0232    -1.680    -0.599    -0.560  0.8316 -0.5553 -0.0022
 
              Baa    -0.1130   -14.912    -5.321    -4.974 -0.2082  0.9123 -0.3527
     7 Mn(55) Bbb    -0.0820   -10.818    -3.860    -3.608  0.6887  0.3928  0.6094
              Bcc     0.1950    25.730     9.181     8.582 -0.6945  0.1161  0.7101
 
              Baa    -0.0061    -3.277    -1.169    -1.093 -0.0348 -0.3283  0.9439
     8 H(1)   Bbb    -0.0058    -3.101    -1.106    -1.034  0.7735  0.5892  0.2334
              Bcc     0.0120     6.378     2.276     2.127 -0.6328  0.7383  0.2335
 
              Baa    -0.0403   -21.528    -7.682    -7.181 -0.3136  0.8548  0.4134
     9 H(1)   Bbb    -0.0378   -20.157    -7.193    -6.724  0.8590  0.4410 -0.2603
              Bcc     0.0781    41.686    14.874    13.905  0.4048 -0.2735  0.8725
 
              Baa    -0.0118    -6.309    -2.251    -2.105  0.6123  0.6903 -0.3855
    10 H(1)   Bbb    -0.0111    -5.930    -2.116    -1.978 -0.1473  0.5786  0.8022
              Bcc     0.0229    12.240     4.367     4.083  0.7768 -0.4344  0.4560
 
              Baa    -0.0169    -9.004    -3.213    -3.004  0.2082  0.7665 -0.6076
    11 H(1)   Bbb    -0.0164    -8.774    -3.131    -2.927 -0.0289  0.6257  0.7795
              Bcc     0.0333    17.778     6.344     5.930  0.9777 -0.1448  0.1524
 
              Baa    -0.0311   -16.574    -5.914    -5.529 -0.7040  0.0135  0.7101
    12 H(1)   Bbb    -0.0287   -15.336    -5.472    -5.115 -0.1371  0.9784 -0.1545
              Bcc     0.0598    31.910    11.386    10.644  0.6969  0.2062  0.6869
 
              Baa    -0.0680    -2.621    -0.935    -0.874  0.2377  0.9086 -0.3434
    13 N(14)  Bbb    -0.0646    -2.491    -0.889    -0.831  0.6982 -0.4056 -0.5899
              Bcc     0.1325     5.112     1.824     1.705  0.6753  0.0996  0.7308
 
              Baa    -0.0260    -3.492    -1.246    -1.165 -0.5038  0.7774  0.3766
    14 C(13)  Bbb    -0.0201    -2.695    -0.962    -0.899 -0.1043 -0.4876  0.8668
              Bcc     0.0461     6.187     2.208     2.064  0.8575  0.3974  0.3267
 
              Baa    -0.0394    -8.523    -3.041    -2.843  0.7127 -0.6911 -0.1201
    15 P(31)  Bbb    -0.0041    -0.897    -0.320    -0.299  0.1145 -0.0543  0.9919
              Bcc     0.0436     9.419     3.361     3.142  0.6921  0.7207 -0.0405
 
              Baa    -0.0182     1.316     0.469     0.439  0.8953 -0.3652  0.2550
    16 O(17)  Bbb    -0.0085     0.614     0.219     0.205 -0.2491  0.0640  0.9664
              Bcc     0.0267    -1.929    -0.688    -0.644  0.3692  0.9287  0.0337
 
              Baa    -0.1317     9.530     3.400     3.179  0.5686  0.2548  0.7822
    17 O(17)  Bbb    -0.0582     4.211     1.503     1.405 -0.5089  0.8560  0.0911
              Bcc     0.1899   -13.741    -4.903    -4.583  0.6464  0.4498 -0.6163
 
              Baa    -0.0139     1.004     0.358     0.335 -0.5294  0.8025  0.2751
    18 O(17)  Bbb    -0.0093     0.672     0.240     0.224  0.1090 -0.2572  0.9602
              Bcc     0.0232    -1.676    -0.598    -0.559  0.8414  0.5383  0.0487
 
              Baa    -0.0061    -3.276    -1.169    -1.093 -0.2335  0.5467  0.8041
    19 H(1)   Bbb    -0.0058    -3.082    -1.100    -1.028  0.7011 -0.4783  0.5288
              Bcc     0.0119     6.358     2.269     2.121  0.6737  0.6872 -0.2717
 
              Baa    -0.0416   -22.191    -7.918    -7.402  0.3325  0.8561 -0.3956
    20 H(1)   Bbb    -0.0386   -20.619    -7.357    -6.878  0.8634 -0.4451 -0.2375
              Bcc     0.0802    42.810    15.276    14.280  0.3794  0.2626  0.8872
 
              Baa    -0.0116    -6.194    -2.210    -2.066 -0.6343  0.7068  0.3132
    21 H(1)   Bbb    -0.0111    -5.901    -2.105    -1.968 -0.2061 -0.5451  0.8127
              Bcc     0.0227    12.095     4.316     4.034  0.7451  0.4509  0.4914
 
              Baa    -0.0151    -8.078    -2.882    -2.695 -0.2461  0.7960  0.5530
    22 H(1)   Bbb    -0.0148    -7.879    -2.812    -2.628 -0.0924 -0.5872  0.8041
              Bcc     0.0299    15.957     5.694     5.323  0.9648  0.1468  0.2181
 
              Baa    -0.0302   -16.131    -5.756    -5.381  0.7217  0.0151 -0.6921
    23 H(1)   Bbb    -0.0280   -14.913    -5.321    -4.974  0.1344  0.9777  0.1614
              Bcc     0.0582    31.044    11.077    10.355  0.6791 -0.2095  0.7036
 
              Baa    -0.0175    -9.345    -3.335    -3.117  0.3850 -0.0265  0.9225
    24 H(1)   Bbb    -0.0162    -8.649    -3.086    -2.885  0.9187 -0.0838 -0.3859
              Bcc     0.0337    17.994     6.421     6.002  0.0876  0.9961 -0.0079
 

 ---------------------------------------------------------------------------------

 ******************************Gaussian NBO Version 3.1******************************
             N A T U R A L   A T O M I C   O R B I T A L   A N D
          N A T U R A L   B O N D   O R B I T A L   A N A L Y S I S
 ******************************Gaussian NBO Version 3.1******************************
       /RESON  / : Allow strongly delocalized NBO set

 Analyzing the SCF density

 Job title: AMPA.a.Mn.CONF1.B3LYP.optfreq                                   

 Storage needed:    737322 in NPA (8053060560 available)
 GSVD:  LWork=       80295 too small for GESVD, short by      246600 words or      246600 for optimal perf.


 NATURAL POPULATIONS:  Natural atomic orbital occupancies 
                                                          
   NAO  Atom  No  lang   Type(AO)    Occupancy
 --------------------------------------------
     1    N    1  S      Cor( 1S)     1.99963
     2    N    1  S      Val( 2S)     1.43532
     3    N    1  S      Ryd( 3S)     0.00384
     4    N    1  S      Ryd( 4S)     0.00015
     5    N    1  S      Ryd( 5S)     0.00000
     6    N    1  px     Val( 2p)     1.46313
     7    N    1  px     Ryd( 3p)     0.00542
     8    N    1  px     Ryd( 4p)     0.00009
     9    N    1  py     Val( 2p)     1.38825
    10    N    1  py     Ryd( 3p)     0.00391
    11    N    1  py     Ryd( 4p)     0.00012
    12    N    1  pz     Val( 2p)     1.56089
    13    N    1  pz     Ryd( 3p)     0.00567
    14    N    1  pz     Ryd( 4p)     0.00007
    15    N    1  dxy    Ryd( 3d)     0.00092
    16    N    1  dxy    Ryd( 4d)     0.00001
[...]
 331,-0.00019318,0.00042112,0.00067258,-0.00032193,0.00010195,-0.000091
 62,0.00107074,-0.00103109,0.00026239,0.00011686,0.00008951,0.00337353,
 0.00119540,0.00484500,-0.00444593,-0.01004315,0.00886971,-0.16228836,-
 0.04415115,0.13093687,0.45601216,0.00079934,-0.00004393,0.00012694,-0.
 00023033,0.00019875,0.00051612,-0.00020132,-0.00476644,-0.00521628,0.0
 1550916,0.00431213,0.00285247,-0.00160328,0.00297923,-0.00000581,0.001
 47540,0.00147143,0.00056480,-0.00372061,-0.00603722,-0.00149118,-0.000
 14178,-0.00044011,0.00028525,-0.00053416,0.00038466,-0.00004931,-0.000
 02067,0.00016915,-0.00013751,0.00008839,-0.00008419,0.00005800,0.00005
 614,0.00001834,-0.00009321,-0.00090119,0.00190398,-0.00028273,0.009020
 67,0.00813334,-0.00828252,-0.04486036,-0.09814251,0.08456380,-0.029308
 14,0.12661299,-0.00187450,0.00017548,0.00095209,0.00175632,0.00165798,
 0.00117612,-0.00296943,-0.00649106,-0.01682373,0.02516589,-0.00489028,
 0.01493517,-0.00480243,0.00167213,0.00725202,0.00187048,0.00121780,0.0
 0250061,0.01059682,0.00245880,0.00131546,-0.00086002,-0.00034074,0.000
 05487,0.00078575,-0.00043489,-0.00043427,-0.00044269,0.00020961,-0.000
 03140,0.00006123,-0.00059347,0.00056244,-0.00016658,-0.00012805,0.0000
 8097,-0.00239380,-0.00039558,-0.00072650,0.01463668,0.01236758,-0.0056
 1245,0.13535851,0.08653790,-0.28379488,-0.18756615,-0.11528892,0.32498
 004,-0.00787716,0.00349124,-0.00234278,0.00136474,0.00136554,-0.000767
 86,0.00488961,-0.00045691,-0.00760055,0.00203898,-0.00280674,0.0055236
 5,-0.00563870,-0.00383636,0.00482236,-0.00199231,-0.00103280,0.0020315
 7,-0.03499850,-0.01295059,-0.02590919,0.00013108,0.00028070,-0.0005133
 4,0.00059034,-0.00248721,-0.00069932,-0.00038981,-0.00010668,0.0002848
 4,-0.00006556,-0.00021033,0.00020835,-0.00131604,-0.00009168,0.0009810
 8,0.00657959,-0.00531296,0.00165149,-0.00444224,0.01373617,-0.01512991
 ,-0.16694333,0.14024302,-0.10160146,0.01842531,-0.00290165,0.00203719,
 0.21712256,0.00388007,0.00025134,0.00045637,-0.00106407,-0.00047556,0.
 00089986,0.00163982,-0.00415815,0.00055937,-0.00359541,0.00321323,-0.0
 0175349,-0.00284126,0.00215106,0.00066837,-0.00019038,0.00060967,-0.00
 027126,-0.02370366,-0.02469197,-0.02060038,0.00007219,-0.00002184,0.00
 005727,-0.00252102,0.00154143,0.00021475,0.00012597,0.00023866,-0.0002
 6794,0.00028027,0.00017617,-0.00026057,0.00056855,0.00017467,-0.000162
 80,-0.00096457,0.00015926,-0.00144414,0.01507047,-0.01555789,0.0157735
 6,0.15085936,-0.28087107,0.15174798,0.00251764,-0.00097973,0.01848145,
 -0.14912203,0.31697968,-0.00647145,0.00183806,0.00106309,0.00151411,0.
 00196323,0.00002407,-0.00271897,-0.00354361,-0.01397926,0.01071701,0.0
 0035094,0.00494347,-0.00412603,-0.00152121,0.00871419,0.00044653,0.000
 13911,0.00248872,-0.01917969,-0.00988968,-0.02805555,-0.00051686,-0.00
 011863,-0.00017522,0.00036825,-0.00092460,-0.00121575,-0.00065580,-0.0
 0007732,0.00024816,-0.00000327,-0.00037753,0.00037793,-0.00039349,0.00
 009848,0.00051064,0.00366204,-0.00898644,0.00169441,-0.00208493,-0.008
 27320,0.00223272,-0.10416891,0.14009239,-0.17951191,-0.00215032,0.0323
 7571,-0.02143374,0.15469806,-0.15713995,0.21758807,-0.00134136,0.00076
 082,-0.00031097,-0.00014067,0.00019274,-0.00046720,0.00484807,0.000613
 69,0.00108454,-0.00653565,0.00142565,-0.00081238,-0.00212386,-0.000357
 35,0.00023499,-0.00184620,-0.00083073,0.00042030,0.00422193,0.00193815
 ,0.00350122,0.00039150,0.00024443,-0.00038622,0.00043847,-0.00073128,-
 0.00005084,-0.00002919,-0.00002214,0.00006221,-0.00001036,0.00007905,-
 0.00008448,-0.00014264,-0.00006877,0.00024382,0.00136351,-0.00226279,-
 0.00243232,-0.00494822,0.00195659,-0.00088559,-0.29397698,-0.07541557,
 -0.07081657,-0.03329739,-0.00817264,0.00517242,-0.01819164,-0.00296347
 ,-0.01509687,0.36376583,0.00034421,0.00018632,-0.00004598,-0.00031005,
 -0.00011522,-0.00002255,0.00141793,-0.00018090,0.00129670,-0.00384948,
 0.00131772,-0.00087958,-0.00048631,0.00070618,-0.00014180,-0.00051131,
 -0.00010983,-0.00008015,0.00006674,-0.00346976,-0.00081570,0.00014022,
 0.00003804,-0.00009929,-0.00023882,-0.00003613,0.00000158,0.00002558,0
 .00003263,-0.00003858,0.00002791,0.00006661,-0.00007107,0.00004317,-0.
 00004037,-0.00003291,-0.00037602,-0.00167403,-0.00496505,-0.01471641,0
 .00108690,-0.00565501,-0.08078401,-0.08135481,-0.03893070,-0.02066594,
 0.00833511,0.00585721,0.01134159,0.01217902,0.01095093,0.11799709,0.12
 461406,-0.00120266,0.00046044,0.00010683,0.00045452,0.00054163,0.00008
 474,0.00029580,-0.00148079,-0.00489988,0.00381781,-0.00084690,0.002416
 43,-0.00200602,0.00017273,0.00281799,-0.00020785,0.00001656,0.00095832
 ,0.00487644,0.00043096,0.00072154,-0.00010809,-0.00001502,-0.00015019,
 0.00036621,-0.00047132,-0.00019644,-0.00016043,0.00004285,0.00002202,0
 .00000827,-0.00012818,0.00012366,-0.00013280,-0.00006364,0.00012605,-0
 .00112898,-0.00453223,-0.00511038,-0.01940011,-0.00583378,-0.00253153,
 -0.10106788,-0.04360241,-0.10592502,0.02736244,0.00660698,0.00686981,-
 0.02254741,0.00117094,-0.00191035,0.14510530,0.19997105,0.56630901,0.0
 0004416,-0.00006445,0.00006494,0.00011269,0.00003967,0.00011236,-0.001
 15383,-0.00035724,-0.00099755,0.00180803,-0.00018464,0.00057640,0.0002
 2109,0.00007862,0.00039569,0.00045420,0.00021243,0.00004225,-0.0002808
 5,-0.00010281,-0.00058054,-0.00012393,-0.00007033,0.00007183,-0.000068
 14,0.00006307,-0.00006335,-0.00003099,0.00000735,-0.00001038,0.0000022
 1,-0.00003522,0.00004058,-0.00000687,0.00001798,-0.00003148,0.00012207
 ,-0.00000110,-0.00048121,-0.00221325,-0.00076354,0.00064339,-0.0146110
 6,-0.01469116,-0.03444616,0.00437545,0.00221360,0.00262332,-0.00212211
 ,0.00076918,0.00104827,-0.02041406,-0.01295673,-0.02586448,0.03618953,
 0.00014893,-0.00015350,0.00007925,0.00006071,0.00001411,0.00006566,-0.
 00068755,-0.00000489,-0.00046497,0.00135217,-0.00044313,0.00022817,0.0
 0020859,-0.00001729,0.00013911,0.00022020,0.00005686,0.00002737,-0.000
 23638,-0.00028792,-0.00051092,-0.00006886,-0.00000656,0.00003432,-0.00
 000421,0.00014335,0.00004296,0.00000861,0.00000325,-0.00000191,-0.0000
 0014,-0.00002347,0.00001938,0.00002645,0.00000792,-0.00001811,0.000195
 59,-0.00087283,-0.00098132,-0.00419667,0.00086611,-0.00100009,-0.00566
 225,-0.00492350,-0.01153799,0.00499385,-0.00046433,0.00055791,0.004858
 72,-0.00122481,0.00202594,-0.02432141,-0.05730092,-0.15609102,0.025105
 42,0.06343756,0.00029907,-0.00011834,-0.00002998,-0.00004419,-0.000090
 44,0.00006912,-0.00076473,0.00005178,0.00046018,0.00079411,-0.00021257
 ,-0.00023528,0.00054584,-0.00000664,-0.00040039,0.00032371,0.00014695,
 -0.00020529,-0.00120628,-0.00024701,-0.00039249,-0.00004113,-0.0000344
 8,0.00010195,-0.00012796,0.00012200,0.00003285,0.00002429,-0.00000476,
 -0.00000868,0.00000197,0.00000446,-0.00000336,0.00001090,0.00002119,-0
 .00003224,0.00009922,0.00049894,0.00103340,0.00097562,0.00044640,0.001
 25613,-0.00369100,-0.00469140,-0.00707739,0.00465377,0.00169450,-0.003
 15836,0.00296720,0.00002011,0.00204880,-0.06097947,-0.16521010,-0.4593
 0848,0.05705777,0.16683454,0.46538438,-0.00027202,-0.00013434,0.000137
 53,0.00038209,-0.00030957,-0.00046312,-0.00121098,0.00202818,0.0030768
 1,-0.00079627,-0.00050387,-0.00107449,0.00027878,-0.00298777,-0.001306
 29,0.00041111,-0.00011818,-0.00055012,0.00474168,0.00514781,-0.0025573
 4,-0.00000599,-0.00003431,0.00012684,0.00012112,-0.00003213,-0.0000261
 0,-0.00000402,-0.00020403,0.00016049,-0.00007021,0.00003341,-0.0000152
 7,0.00001493,-0.00002242,-0.00003563,-0.15839525,-0.14134393,0.0770938
 2,-0.02033285,-0.01880700,0.00909311,0.00033206,-0.00079184,-0.0011819
 1,-0.00111951,0.00003628,0.00056560,-0.00077789,0.00067705,0.00100355,
 -0.00000715,0.00018903,0.00009371,0.00007871,-0.00003808,-0.00004991,0
 .18344880,-0.00000029,0.00018288,-0.00006371,-0.00016395,0.00031370,0.
 00028963,0.00140031,-0.00136999,-0.00263255,0.00012520,0.00034405,0.00
 081642,-0.00304808,0.00153624,0.00238545,-0.00071441,-0.00024495,0.000
 72755,-0.00085134,-0.00971229,0.00229400,-0.00002038,0.00015747,-0.000
 11442,-0.00005175,-0.00003264,0.00000432,-0.00002116,0.00014750,-0.000
 09168,0.00005098,-0.00002475,0.00001751,0.00000055,0.00000391,0.000057
 31,-0.17914199,-0.22297056,0.10600752,0.00288756,-0.00296793,0.0017939
 0,-0.00206177,-0.00128261,0.00023952,0.00047423,0.00013812,0.00015799,
 0.00077459,-0.00015254,-0.00062395,0.00026821,-0.00001067,-0.00018548,
 -0.00007379,-0.00004915,-0.00006186,0.16657330,0.22502781,0.00003104,0
 .00001853,-0.00010176,-0.00016689,0.00012753,0.00017804,0.00092667,-0.
 00086737,-0.00074142,-0.00015879,0.00028703,0.00003052,-0.00019667,0.0
 0112952,-0.00088897,-0.00019546,0.00004287,0.00004644,-0.00056626,0.00
 105062,0.00155701,0.00007050,-0.00001850,-0.00004045,0.00000117,-0.000
 01250,0.00001252,0.00000860,0.00008153,-0.00006412,0.00001742,0.000004
 19,-0.00000013,0.00001113,0.00002303,0.00002177,0.08807462,0.09268453,
 -0.11595860,-0.01664897,-0.01708049,0.00914316,-0.00314404,-0.00079576
 ,0.00281994,0.00123602,0.00117091,-0.00059891,0.00038107,-0.00024855,-
 0.00058595,0.00014054,-0.00038296,-0.00099584,-0.00009118,-0.00014657,
 -0.00003861,-0.08602672,-0.10262032,0.12131018,-0.00003737,0.00005519,
 0.00009708,0.00007459,0.00005580,0.00002037,-0.00016213,-0.00017454,-0
 .00071240,0.00058748,-0.00007572,0.00032912,-0.00030419,-0.00008406,0.
 00077178,0.00000573,-0.00001126,0.00015317,0.00021419,-0.00117892,-0.0
 0139504,-0.00004421,0.00001435,-0.00000702,-0.00003456,0.00000595,-0.0
 0001938,-0.00002011,0.00000347,0.00000492,0.00000824,-0.00001838,0.000
 01338,0.00001356,-0.00003112,-0.00000564,-0.01544623,0.01927382,-0.017
 77772,-0.06203491,0.05686228,-0.03281787,-0.00266879,0.00793153,-0.000
 42010,0.00091899,-0.00137506,-0.00037410,0.00058570,0.00104752,0.00048
 003,-0.00028274,-0.00029696,0.00017775,0.00014930,0.00022109,0.0000372
 4,0.00152532,0.00113793,-0.00036477,0.07056712,0.00013556,0.00000204,0
 .00002827,-0.00005898,-0.00002391,0.00002431,0.00005562,-0.00011970,0.
 00019737,-0.00034100,0.00018343,-0.00018529,-0.00005417,0.00015066,0.0
 0001302,-0.00003084,0.00000971,-0.00002857,-0.00087162,-0.00114599,-0.
 00094474,0.00001074,0.00000423,0.00000161,-0.00013132,0.00008927,0.000
 00395,0.00000868,0.00000805,-0.00000992,0.00001179,0.00001142,-0.00001
 519,0.00003266,0.00000029,-0.00001728,-0.00484898,0.01048443,-0.007104
 93,0.06104456,-0.24481015,0.11012433,0.00320478,-0.01326952,0.01312631
 ,-0.00122789,0.00187245,-0.00047640,0.00346281,-0.00340621,-0.00152159
 ,-0.00102004,0.00059409,-0.00173069,-0.00022538,-0.00009365,-0.0002219
 1,0.00064595,0.00162523,0.00023641,-0.06322678,0.25388196,0.00014110,0
 .00001690,0.00004491,-0.00005889,0.00001558,0.00006262,0.00007759,-0.0
 0036019,-0.00018493,-0.00010087,0.00020732,-0.00003047,-0.00027993,0.0
 0028140,0.00035538,-0.00004925,0.00003695,0.00004208,-0.00048981,-0.00
 201685,-0.00158433,0.00000513,-0.00000180,-0.00000631,-0.00016905,0.00
 009380,-0.00000340,-0.00000181,0.00001737,-0.00001628,0.00001858,0.000
 00371,-0.00000941,0.00003330,0.00000209,-0.00000982,-0.01196347,0.0137
 2060,-0.01189728,-0.03136377,0.09946125,-0.09977416,0.00309236,-0.0111
 0611,0.01223994,-0.00083817,0.00184034,-0.00053113,0.00487332,-0.00601
 696,-0.00060274,-0.00046724,0.00070872,-0.00128925,-0.00029594,0.00017
 347,-0.00012607,0.00133213,-0.00000823,0.00088594,0.04193447,-0.113277
 15,0.10950068,0.00009203,0.00000592,0.00000075,-0.00003213,0.00000677,
 0.00004781,-0.00004934,-0.00020887,-0.00022206,0.00016668,0.00006933,0
 .00007998,-0.00011949,0.00029981,0.00021289,0.00001903,0.00003711,0.00
 003324,-0.00063501,-0.00108422,-0.00015944,-0.00001362,-0.00000337,0.0
 0000040,-0.00005617,0.00003725,0.00000164,0.00000237,0.00001778,-0.000
 01465,0.00000878,-0.00000303,0.00000220,0.00000571,0.00000096,-0.00000
 536,-0.02249533,-0.00914471,0.00964875,-0.20313684,-0.06707245,0.11267
 757,-0.00594385,0.00020938,0.00705913,0.00047902,0.00017879,-0.0003509
 4,0.00140029,0.00008117,-0.00048380,-0.00064437,-0.00078662,-0.0021276
 3,0.00023339,0.00001435,0.00005097,-0.00267788,0.00119868,-0.00306127,
 0.00777962,0.00281146,-0.00492313,0.22458962,-0.00006032,-0.00000225,0
 .00003596,0.00005422,0.00005909,0.00003434,-0.00022919,-0.00019390,-0.
 00056624,0.00071088,-0.00010617,0.00030855,-0.00013725,0.00009318,0.00
 032297,0.00006484,0.00004640,0.00008647,0.00025942,-0.00000464,-0.0004
 0675,-0.00002708,-0.00001612,0.00000142,0.00001567,-0.00000633,-0.0000
 1483,-0.00001616,0.00000614,-0.00000156,0.00000252,-0.00001938,0.00001
 640,0.00000004,-0.00000315,-0.00000004,-0.00641545,-0.00318025,0.00162
 629,-0.05949742,-0.06880857,0.04515176,0.01525498,0.00810765,-0.009736
 57,0.00241351,-0.00239802,-0.00446330,-0.00191400,-0.00145844,0.001560
 50,-0.00081100,-0.00018310,0.00160665,0.00026820,0.00031219,0.00008389
 ,-0.00084298,0.00054095,-0.00123062,-0.02073416,-0.00636426,0.01500507
 ,0.07362050,0.07270359,-0.00004675,0.00002002,0.00002402,0.00005074,0.
 00007145,0.00005393,-0.00026884,-0.00026085,-0.00077510,0.00090471,-0.
 00012214,0.00042610,-0.00022930,0.00021639,0.00054241,0.00007749,0.000
 05600,0.00012571,0.00028908,-0.00050289,-0.00025384,-0.00004387,-0.000
 01202,0.00000300,0.00001119,-0.00000814,-0.00001267,-0.00001598,0.0000
 1487,-0.00000633,0.00000427,-0.00002326,0.00002293,-0.00001049,-0.0000
 0447,0.00000747,-0.02390196,-0.00979840,0.01012688,0.12526607,0.052179
 34,-0.13282117,0.01433676,0.01006825,-0.01001048,0.00249002,-0.0032885
 1,-0.00331494,-0.00147685,-0.00087056,0.00138477,-0.00152341,-0.000127
 81,0.00132726,0.00006401,0.00018420,0.00005053,-0.00418196,-0.00027388
 ,-0.00266720,0.00962820,0.00173525,-0.00671663,-0.11962100,-0.04913633
 ,0.14050495,0.00001888,-0.00002067,-0.00008682,-0.00002434,0.00008477,
 0.00009640,0.00012841,-0.00056501,-0.00084000,0.00029999,0.00006610,0.
 00022383,-0.00167830,0.00070990,0.00088144,-0.00014145,0.00000263,0.00
 021109,-0.00059963,-0.00010547,0.00300672,-0.00002731,0.00002401,-0.00
 001162,0.00001688,-0.00000335,-0.00001186,0.00000787,0.00005758,-0.000
 03645,0.00001046,-0.00000708,0.00001597,0.00001674,0.00001938,0.000019
 40,-0.09219826,0.03468743,0.12548160,0.00471760,-0.01210134,-0.0310805
 3,-0.00421808,0.00267085,-0.00098415,0.00126132,-0.00016000,-0.0005364
 2,0.00084267,-0.00008640,0.00073715,-0.00067831,-0.00148590,-0.0013761
 2,-0.00013854,-0.00028924,0.00014641,-0.00696677,0.01161141,0.01976042
 ,-0.00047916,-0.00016222,-0.00080248,0.00118717,-0.00052872,-0.0000053
 2,0.09918116,-0.00008524,0.00001916,0.00013599,-0.00000972,0.00010039,
 0.00008258,0.00008776,0.00010507,-0.00027328,0.00013106,-0.00001623,0.
 00010645,0.00017097,0.00024123,-0.00021359,-0.00000750,-0.00005083,0.0
 0001185,0.00130646,-0.00122192,-0.00429327,0.00001406,0.00000230,-0.00
 001512,-0.00003801,0.00002135,-0.00001416,-0.00003713,-0.00000496,-0.0
 0000218,0.00000192,-0.00000530,0.00000101,0.00001912,-0.00000622,-0.00
 002060,0.04059227,-0.08861199,-0.14549196,0.00278221,-0.00451068,-0.00
 295113,-0.00121779,0.00010723,-0.00018641,0.00059099,0.00009140,-0.000
 21331,-0.00010621,-0.00086643,-0.00026175,-0.00052041,-0.00054415,-0.0
 0082754,-0.00010808,-0.00017946,0.00007898,-0.00900041,0.00886633,0.02
 695954,0.00041479,0.00041208,0.00125427,-0.00029106,0.00076004,-0.0001
 9984,-0.03445543,0.08529760,-0.00012106,0.00011584,-0.00004266,-0.0000
 0222,0.00005904,-0.00002030,0.00049915,-0.00031791,-0.00038320,-0.0001
 3736,0.00008249,0.00011270,-0.00082023,-0.00000371,0.00052227,-0.00021
 399,-0.00002220,0.00013815,0.00059711,-0.00062618,0.00127178,0.0000244
 6,0.00001402,-0.00003125,0.00002964,-0.00005236,-0.00000227,-0.0000053
 2,0.00001650,-0.00000216,0.00000381,-0.00000216,0.00000533,-0.00001094
 ,0.00000478,0.00006771,0.10651307,-0.11140253,-0.32466478,0.00401227,-
 0.00794205,-0.01755099,-0.00255316,0.00101621,-0.00084512,0.00008087,0
 .00011613,0.00033058,0.00039012,0.00073160,0.00060820,0.00016048,-0.00
 020979,-0.00025230,-0.00005254,-0.00017107,0.00007871,0.00472279,-0.00
 783813,-0.01303493,0.00032641,-0.00012688,-0.00057590,0.00109564,0.000
 21568,0.00249848,-0.11466685,0.12638139,0.35184029,-0.00232902,-0.0005
 8528,0.00227110,0.00450876,0.00387296,0.00406442,-0.02418191,-0.022011
 14,-0.04971249,0.04649213,-0.00662856,0.02711139,-0.00656687,0.0061661
 4,0.01721920,0.00915168,0.00634195,0.00480952,0.01450382,0.00211338,-0
 .00151110,-0.00246172,-0.00198653,0.00150924,0.00102672,0.00011193,-0.
 00052048,-0.00095826,0.00058794,-0.00017133,0.00019924,-0.00170394,0.0
 0160042,-0.00038424,-0.00017727,-0.00007792,-0.00286697,-0.00000917,-0
 .00191790,0.00508411,0.00411325,-0.00355105,-0.02441514,-0.02588021,0.
 05249738,-0.20430809,0.06475342,0.00170685,-0.00921559,0.00946303,-0.0
 1662462,0.00958148,0.00587109,-0.00522779,-0.00262718,-0.00190992,-0.0
 0108341,0.00130219,-0.00035403,-0.00003817,-0.00091542,0.00077461,0.00
 029582,-0.00015967,-0.00145105,-0.00179681,-0.00053901,-0.00023464,0.0
 0012786,0.19007898,0.00039507,0.00007965,-0.00069434,-0.00031061,-0.00
 073825,-0.00056485,0.00046386,0.00790228,0.01260590,-0.01218664,-0.012
 15890,-0.00754016,0.00248851,-0.00328636,-0.00346024,-0.00439528,-0.00
 323370,-0.00230971,-0.00232493,0.00123265,0.00062029,0.00062278,0.0009
 3161,-0.00069098,-0.00002598,-0.00022485,0.00035931,0.00022587,-0.0001
 7320,0.00006598,-0.00005918,0.00026960,-0.00024716,0.00004051,0.000006
 25,0.00001779,0.00059874,-0.00019977,0.00042504,-0.00017754,-0.0004925
 4,-0.00034932,-0.01051563,0.00824878,-0.00871296,0.06967159,-0.0432646
 3,0.00236416,0.00378177,-0.00380955,0.00186415,-0.00797883,-0.00413680
 ,0.00478823,0.00085895,0.00120405,0.00089577,-0.00016014,-0.00006609,-
 0.00041263,0.00018323,-0.00009595,-0.00005155,0.00000506,0.00011537,0.
 00008331,0.00003679,-0.00000600,-0.00003871,-0.04123797,0.05189635,0.0
 0051608,-0.00018104,-0.00015009,-0.00128873,-0.00091993,-0.00118025,-0
 .00947436,0.00313559,0.00026115,0.00206679,-0.00155460,-0.01433702,0.0
 0269698,-0.00071018,-0.00037573,0.00035109,0.00037208,-0.00055847,-0.0
 0138473,0.00014048,-0.00308434,0.00022112,-0.00016085,0.00028088,-0.00
 019329,0.00023061,0.00002404,0.00013914,-0.00014951,0.00009396,-0.0001
 0176,0.00042827,-0.00032415,0.00008210,0.00002932,-0.00004051,-0.00025
 608,0.00009009,-0.00017240,0.00142719,0.00146907,-0.00227866,0.0282656
 0,-0.00160074,-0.01664056,0.01191373,0.00136401,-0.02454989,-0.0022616
 1,-0.00174504,0.00354324,-0.00181225,-0.00107716,0.00068601,0.00017400
 ,0.00051168,0.00050057,0.00006250,-0.00027689,-0.00028864,-0.00007988,
 0.00016969,0.00022657,0.00005829,-0.00049973,-0.00052008,-0.00014180,-
 0.00004792,-0.00006834,-0.03098011,0.00098269,0.05895270\\0.00000358,0
 .00000356,-0.00000371,-0.00002284,0.00000644,0.00000797,-0.00000910,0.
 00001472,0.00002581,0.00002482,-0.00001794,-0.00001411,0.00001160,-0.0
 0001320,-0.00000451,0.00000598,0.00000086,0.00000019,-0.00003039,-0.00
 000939,-0.00000505,-0.00000491,-0.00000553,-0.00000358,0.00000093,0.00
 000411,0.00000768,0.00001026,-0.00000350,0.00000841,0.00000928,-0.0000
 0364,0.00000187,0.00000162,0.00000798,0.00000778,-0.00001006,-0.000003
 77,-0.00001693,0.00003341,-0.00001512,0.00000614,-0.00002933,-0.000036
 12,0.00002425,0.00001380,-0.00000906,-0.00002848,0.00003031,0.00004774
 ,-0.00000787,0.00000493,0.00000717,0.00000281,0.00000323,-0.00000868,-
 0.00000539,0.00000408,0.00000286,0.00000022,-0.00001164,0.00000082,-0.
 00000428,-0.00001340,0.00001095,-0.00000649,-0.00000093,0.00000977,-0.
 00000490,-0.00002522,0.00000897,0.00001217\\\@
 The archive entry for this job was punched.


 ABOVE ALL I AM AN OPTIMIST FOR NUMBER THEORY,
 AND I HOLD THE HOPE THAT WE MAY NOT BE FAR FROM
 A TIME WHEN IRREFUTABLE ARITHMETIC WILL CELEBRATE
 ITS TRIUMPHS IN PHYSICS AND CHEMISTRY.
   -- HERMANN MINKOWSKI, 1905
 Job cpu time:       0 days 14 hours 17 minutes 57.4 seconds.
 Elapsed time:       0 days  0 hours 24 minutes 53.1 seconds.
 File lengths (MBytes):  RWF=   1082 Int=      0 D2E=      0 Chk=     28 Scr=      1
 Normal termination of Gaussian 16 at Thu Sep  5 03:08:42 2024.
