 Entering Gaussian System, Link 0=g16
 Initial command:
 /apps/gaussian/g16c01/g16/l1.exe "/jobfs/124225037.gadi-pbs/Gau-1793093.inp" -scrdir="/jobfs/124225037.gadi-pbs/"
 Entering Link 1 = /apps/gaussian/g16c01/g16/l1.exe PID=   1793094.
  
 Copyright (c) 1988-2019, Gaussian, Inc.  All Rights Reserved.
  
 This is part of the Gaussian(R) 16 program.  It is based on
 the Gaussian(R) 09 system (copyright 2009, Gaussian, Inc.),
 the Gaussian(R) 03 system (copyright 2003, Gaussian, Inc.),
 the Gaussian(R) 98 system (copyright 1998, Gaussian, Inc.),
 the Gaussian(R) 94 system (copyright 1995, Gaussian, Inc.),
 the Gaussian 92(TM) system (copyright 1992, Gaussian, Inc.),
 the Gaussian 90(TM) system (copyright 1990, Gaussian, Inc.),
 the Gaussian 88(TM) system (copyright 1988, Gaussian, Inc.),
 the Gaussian 86(TM) system (copyright 1986, Carnegie Mellon
 University), and the Gaussian 82(TM) system (copyright 1983,
 Carnegie Mellon University). Gaussian is a federally registered
 trademark of Gaussian, Inc.
  
 This software contains proprietary and confidential information,
 including trade secrets, belonging to Gaussian, Inc.
  
 This software is provided under written license and may be
 used, copied, transmitted, or stored only in accord with that
 written license.
  
 The following legend is applicable only to US Government
 contracts under FAR:
  
                    RESTRICTED RIGHTS LEGEND
  
 Use, reproduction and disclosure by the US Government is
 subject to restrictions as set forth in subparagraphs (a)
 and (c) of the Commercial Computer Software - Restricted
 Rights clause in FAR 52.227-19.
  
 Gaussian, Inc.
 340 Quinnipiac St., Bldg. 40, Wallingford CT 06492
  
  
 ---------------------------------------------------------------
 Warning -- This program may not be used in any manner that
 competes with the business of Gaussian, Inc. or will provide
 assistance to any competitor of Gaussian, Inc.  The licensee
 of this program is prohibited from giving any competitor of
 Gaussian, Inc. access to this program.  By using this program,
 the user acknowledges that Gaussian, Inc. is engaged in the
 business of creating and licensing software in the field of
 computational chemistry and represents and warrants to the
 licensee that it is not a competitor of Gaussian, Inc. and that
 it will not use this program in any manner prohibited above.
 ---------------------------------------------------------------
  

 Cite this work as:
 Gaussian 16, Revision C.01,
 M. J. Frisch, G. W. Trucks, H. B. Schlegel, G. E. Scuseria, 
 M. A. Robb, J. R. Cheeseman, G. Scalmani, V. Barone, 
 G. A. Petersson, H. Nakatsuji, X. Li, M. Caricato, A. V. Marenich, 
 J. Bloino, B. G. Janesko, R. Gomperts, B. Mennucci, H. P. Hratchian, 
 J. V. Ortiz, A. F. Izmaylov, J. L. Sonnenberg, D. Williams-Young, 
 F. Ding, F. Lipparini, F. Egidi, J. Goings, B. Peng, A. Petrone, 
 T. Henderson, D. Ranasinghe, V. G. Zakrzewski, J. Gao, N. Rega, 
 G. Zheng, W. Liang, M. Hada, M. Ehara, K. Toyota, R. Fukuda, 
 J. Hasegawa, M. Ishida, T. Nakajima, Y. Honda, O. Kitao, H. Nakai, 
 T. Vreven, K. Throssell, J. A. Montgomery, Jr., J. E. Peralta, 
 F. Ogliaro, M. J. Bearpark, J. J. Heyd, E. N. Brothers, K. N. Kudin, 
 V. N. Staroverov, T. A. Keith, R. Kobayashi, J. Normand, 
 K. Raghavachari, A. P. Rendell, J. C. Burant, S. S. Iyengar, 
 J. Tomasi, M. Cossi, J. M. Millam, M. Klene, C. Adamo, R. Cammi, 
 J. W. Ochterski, R. L. Martin, K. Morokuma, O. Farkas, 
 J. B. Foresman, and D. J. Fox, Gaussian, Inc., Wallingford CT, 2019.
 
 ******************************************
 Gaussian 16:  ES64L-G16RevC.01  3-Jul-2019
                 5-Sep-2024 
 ******************************************
 %chk=AMPA.a.Sr.CONF1.B3LYP.chk
 %nprocshared=48
 Will use up to   48 processors via shared memory.
 %mem=60000MB
 ----------------------------------------------------------------------
 #UM06/Def2TZVP Opt Freq(noraman) INT(grid=ultrafine) EmpiricalDispersi
 on=GD3 SCF=XQC Pop=NPA
 ----------------------------------------------------------------------
 1/18=20,19=15,26=4,38=1/1,3;
 2/9=110,12=2,17=6,18=5,40=1/2;
 3/5=44,7=101,11=2,25=1,30=1,71=1,74=-54,75=-5,116=2,124=31/1,2,3;
 4//1;
 5/5=2,8=3,13=1,38=5/2,8;
 6/7=2,8=2,9=2,10=2,28=1,40=-1/1,7;
 7//1,2,3,16;
 1/18=20,19=15,26=4/3(2);
 2/9=110/2;
 99//99;
 2/9=110/2;
 3/5=44,7=101,11=2,25=1,30=1,71=1,74=-54,75=-5,116=2,124=31/1,2,3;
 4/5=5,16=3,69=1/1;
 5/5=2,8=3,13=1,38=5/2,8;
 7//1,2,3,16;
 1/18=20,19=15,26=4/3(-5);
 2/9=110/2;
 6/7=2,8=2,9=2,10=2,19=2,28=1,40=-1/1,7;
 99/9=1/99;


 Symbolic Z-matrix:
 Charge =  1 Multiplicity = 1
 N                    -1.85055   1.12021  -1.4949 
 C                    -2.78293  -0.01616  -1.23947 
 P                    -2.19107  -0.76417   0.3063 
 O                    -2.35831   0.26834   1.40131 
 O                    -0.71281  -1.05255   0.08633 
 O                    -3.02852  -2.08739   0.54274 
 Sr                   -0.35243   1.49606   0.80706 
 H                    -3.56089  -2.09168   1.34619 
 H                    -2.3331    1.85481  -1.99876 
 H                    -3.7886    0.36812  -1.08208 
 H                    -2.81447  -0.73321  -2.05986 
 H                    -1.09691   0.81038  -2.09908 
 N                     1.48576  -0.19448   1.96109 
 C                     2.686    -0.39722   1.11564 
 P                     2.24192  -0.14064  -0.62478 
 O                     3.63582  -0.14132  -1.35305 
 O                     1.45435   1.1299   -0.72885 
 O                     1.48802  -1.39513  -1.17679 
 H                     0.54498  -1.43469  -0.83157 
 H                     1.76947  -0.14579   2.93329 
 H                     3.43138   0.35786   1.36493 
 H                     3.14673  -1.37846   1.2404 
 H                     0.87529  -1.00409   1.87887 
 H                     3.65649  -0.46443  -2.26171 
 

 GradGradGradGradGradGradGradGradGradGradGradGradGradGradGradGradGradGrad
 Berny optimization.
 Initialization pass.
                           ----------------------------
                           !    Initial Parameters    !
                           ! (Angstroms and Degrees)  !
 --------------------------                            --------------------------
 ! Name  Definition              Value          Derivative Info.                !
 --------------------------------------------------------------------------------
 ! R1    R(1,2)                  1.492          estimate D2E/DX2                !
 ! R2    R(1,7)                  2.7721         estimate D2E/DX2                !
 ! R3    R(1,9)                  1.0131         estimate D2E/DX2                !
 ! R4    R(1,12)                 1.0144         estimate D2E/DX2                !
 ! R5    R(2,3)                  1.8164         estimate D2E/DX2                !
 ! R6    R(2,10)                 1.088          estimate D2E/DX2                !
 ! R7    R(2,11)                 1.09           estimate D2E/DX2                !
 ! R8    R(3,4)                  1.5143         estimate D2E/DX2                !
 ! R9    R(3,5)                  1.5221         estimate D2E/DX2                !
 ! R10   R(3,6)                  1.5837         estimate D2E/DX2                !
 ! R11   R(3,7)                  2.9563         estimate D2E/DX2                !
 ! R12   R(4,7)                  2.4257         estimate D2E/DX2                !
 ! R13   R(5,7)                  2.673          estimate D2E/DX2                !
 ! R14   R(6,8)                  0.9638         estimate D2E/DX2                !
 ! R15   R(7,13)                 2.7511         estimate D2E/DX2                !
 ! R16   R(7,15)                 3.3852         estimate D2E/DX2                !
 ! R17   R(7,17)                 2.3995         estimate D2E/DX2                !
 ! R18   R(13,14)                1.4821         estimate D2E/DX2                !
 ! R19   R(13,20)                1.0139         estimate D2E/DX2                !
 ! R20   R(13,23)                1.0173         estimate D2E/DX2                !
 ! R21   R(14,15)                1.8144         estimate D2E/DX2                !
 ! R22   R(14,21)                1.0899         estimate D2E/DX2                !
 ! R23   R(14,22)                1.0912         estimate D2E/DX2                !
 ! R24   R(15,16)                1.5727         estimate D2E/DX2                !
 ! R25   R(15,17)                1.4984         estimate D2E/DX2                !
 ! R26   R(15,18)                1.5642         estimate D2E/DX2                !
 ! R27   R(16,24)                0.9646         estimate D2E/DX2                !
 ! R28   R(18,19)                1.005          estimate D2E/DX2                !
 ! A1    A(2,1,7)              107.3876         estimate D2E/DX2                !
 ! A2    A(2,1,9)              109.8629         estimate D2E/DX2                !
 ! A3    A(2,1,12)             109.4891         estimate D2E/DX2                !
 ! A4    A(7,1,9)              124.8963         estimate D2E/DX2                !
 ! A5    A(7,1,12)              97.7298         estimate D2E/DX2                !
 ! A6    A(9,1,12)             106.2073         estimate D2E/DX2                !
 ! A7    A(1,2,3)              104.8165         estimate D2E/DX2                !
 ! A8    A(1,2,10)             109.4743         estimate D2E/DX2                !
 ! A9    A(1,2,11)             112.9711         estimate D2E/DX2                !
 ! A10   A(3,2,10)             108.8761         estimate D2E/DX2                !
 ! A11   A(3,2,11)             112.2731         estimate D2E/DX2                !
 ! A12   A(10,2,11)            108.3291         estimate D2E/DX2                !
 ! A13   A(2,3,4)              107.374          estimate D2E/DX2                !
 ! A14   A(2,3,5)              105.7536         estimate D2E/DX2                !
 ! A15   A(2,3,6)              107.3869         estimate D2E/DX2                !
 ! A16   A(2,3,7)               91.8315         estimate D2E/DX2                !
 ! A17   A(4,3,5)              109.9346         estimate D2E/DX2                !
 ! A18   A(4,3,6)              113.7866         estimate D2E/DX2                !
 ! A19   A(5,3,6)              112.1378         estimate D2E/DX2                !
 ! A20   A(6,3,7)              160.4527         estimate D2E/DX2                !
 ! A21   A(3,6,8)              114.8503         estimate D2E/DX2                !
 ! A22   A(1,7,3)               54.52           estimate D2E/DX2                !
 ! A23   A(1,7,4)               71.8153         estimate D2E/DX2                !
 ! A24   A(1,7,5)               64.7834         estimate D2E/DX2                !
 ! A25   A(1,7,13)             128.7636         estimate D2E/DX2                !
 ! A26   A(1,7,15)              89.8502         estimate D2E/DX2                !
 ! A27   A(1,7,17)              81.6456         estimate D2E/DX2                !
 ! A28   A(3,7,13)              90.9626         estimate D2E/DX2                !
 ! A29   A(3,7,15)              92.0256         estimate D2E/DX2                !
 ! A30   A(3,7,17)             104.0761         estimate D2E/DX2                !
 ! A31   A(4,7,5)               58.1284         estimate D2E/DX2                !
 ! A32   A(4,7,13)              97.9751         estimate D2E/DX2                !
 ! A33   A(4,7,15)             119.5152         estimate D2E/DX2                !
 ! A34   A(4,7,17)             134.6072         estimate D2E/DX2                !
 ! A35   A(5,7,13)              67.498          estimate D2E/DX2                !
 ! A36   A(5,7,15)              61.8542         estimate D2E/DX2                !
 ! A37   A(5,7,17)              77.492          estimate D2E/DX2                !
 ! A38   A(13,7,15)             50.8217         estimate D2E/DX2                !
 ! A39   A(13,7,17)             70.8296         estimate D2E/DX2                !
 ! A40   A(7,13,14)            112.6982         estimate D2E/DX2                !
 ! A41   A(7,13,20)            124.0331         estimate D2E/DX2                !
 ! A42   A(7,13,23)             93.1062         estimate D2E/DX2                !
 ! A43   A(14,13,20)           109.0834         estimate D2E/DX2                !
 ! A44   A(14,13,23)           109.3293         estimate D2E/DX2                !
 ! A45   A(20,13,23)           106.4771         estimate D2E/DX2                !
 ! A46   A(13,14,15)           109.2465         estimate D2E/DX2                !
 ! A47   A(13,14,21)           109.184          estimate D2E/DX2                !
 ! A48   A(13,14,22)           113.5613         estimate D2E/DX2                !
 ! A49   A(15,14,21)           106.7869         estimate D2E/DX2                !
 ! A50   A(15,14,22)           109.8881         estimate D2E/DX2                !
 ! A51   A(21,14,22)           107.9442         estimate D2E/DX2                !
 ! A52   A(7,15,14)             81.3863         estimate D2E/DX2                !
 ! A53   A(7,15,16)            151.0845         estimate D2E/DX2                !
 ! A54   A(7,15,18)             99.6512         estimate D2E/DX2                !
 ! A55   A(14,15,16)           103.132          estimate D2E/DX2                !
 ! A56   A(14,15,17)           108.371          estimate D2E/DX2                !
 ! A57   A(14,15,18)           110.063          estimate D2E/DX2                !
 ! A58   A(16,15,17)           115.7246         estimate D2E/DX2                !
 ! A59   A(16,15,18)           105.2722         estimate D2E/DX2                !
 ! A60   A(17,15,18)           113.7145         estimate D2E/DX2                !
 ! A61   A(15,16,24)           117.087          estimate D2E/DX2                !
 ! A62   A(15,18,19)           111.2591         estimate D2E/DX2                !
 ! D1    D(7,1,2,3)            -11.7122         estimate D2E/DX2                !
 ! D2    D(7,1,2,10)           104.9348         estimate D2E/DX2                !
 ! D3    D(7,1,2,11)          -134.2563         estimate D2E/DX2                !
 ! D4    D(9,1,2,3)           -150.349          estimate D2E/DX2                !
 ! D5    D(9,1,2,10)           -33.702          estimate D2E/DX2                !
 ! D6    D(9,1,2,11)            87.1069         estimate D2E/DX2                !
 ! D7    D(12,1,2,3)            93.3774         estimate D2E/DX2                !
 ! D8    D(12,1,2,10)         -149.9755         estimate D2E/DX2                !
 ! D9    D(12,1,2,11)          -29.1667         estimate D2E/DX2                !
 ! D10   D(2,1,7,3)              8.515          estimate D2E/DX2                !
 ! D11   D(2,1,7,4)            -20.1834         estimate D2E/DX2                !
 ! D12   D(2,1,7,5)             42.4536         estimate D2E/DX2                !
 ! D13   D(2,1,7,13)            65.4305         estimate D2E/DX2                !
 ! D14   D(2,1,7,15)           101.1096         estimate D2E/DX2                !
 ! D15   D(2,1,7,17)           122.5029         estimate D2E/DX2                !
 ! D16   D(9,1,7,3)            139.2467         estimate D2E/DX2                !
 ! D17   D(9,1,7,4)            110.5484         estimate D2E/DX2                !
 ! D18   D(9,1,7,5)            173.1853         estimate D2E/DX2                !
 ! D19   D(9,1,7,13)          -163.8378         estimate D2E/DX2                !
 ! D20   D(9,1,7,15)          -128.1586         estimate D2E/DX2                !
 ! D21   D(9,1,7,17)          -106.7654         estimate D2E/DX2                !
 ! D22   D(12,1,7,3)          -104.7705         estimate D2E/DX2                !
 ! D23   D(12,1,7,4)          -133.4688         estimate D2E/DX2                !
 ! D24   D(12,1,7,5)           -70.8319         estimate D2E/DX2                !
 ! D25   D(12,1,7,13)          -47.855          estimate D2E/DX2                !
 ! D26   D(12,1,7,15)          -12.1758         estimate D2E/DX2                !
 ! D27   D(12,1,7,17)            9.2174         estimate D2E/DX2                !
 ! D28   D(1,2,3,4)             64.1094         estimate D2E/DX2                !
 ! D29   D(1,2,3,5)            -53.2424         estimate D2E/DX2                !
 ! D30   D(1,2,3,6)           -173.1512         estimate D2E/DX2                !
 ! D31   D(1,2,3,7)             10.4712         estimate D2E/DX2                !
 ! D32   D(10,2,3,4)           -52.9485         estimate D2E/DX2                !
 ! D33   D(10,2,3,5)          -170.3003         estimate D2E/DX2                !
 ! D34   D(10,2,3,6)            69.7909         estimate D2E/DX2                !
 ! D35   D(10,2,3,7)          -106.5867         estimate D2E/DX2                !
 ! D36   D(11,2,3,4)          -172.8946         estimate D2E/DX2                !
 ! D37   D(11,2,3,5)            69.7536         estimate D2E/DX2                !
 ! D38   D(11,2,3,6)           -50.1552         estimate D2E/DX2                !
 ! D39   D(11,2,3,7)           133.4672         estimate D2E/DX2                !
 ! D40   D(2,3,6,8)           -117.9361         estimate D2E/DX2                !
 ! D41   D(4,3,6,8)              0.7474         estimate D2E/DX2                !
 ! D42   D(5,3,6,8)            126.3084         estimate D2E/DX2                !
 ! D43   D(7,3,6,8)             51.1849         estimate D2E/DX2                !
 ! D44   D(2,3,7,1)             -6.6684         estimate D2E/DX2                !
 ! D45   D(2,3,7,13)          -145.8695         estimate D2E/DX2                !
 ! D46   D(2,3,7,15)           -95.0397         estimate D2E/DX2                !
 ! D47   D(2,3,7,17)           -75.4042         estimate D2E/DX2                !
 ! D48   D(6,3,7,1)           -176.2868         estimate D2E/DX2                !
 ! D49   D(6,3,7,13)            44.5122         estimate D2E/DX2                !
 ! D50   D(6,3,7,15)            95.342          estimate D2E/DX2                !
 ! D51   D(6,3,7,17)           114.9774         estimate D2E/DX2                !
 ! D52   D(1,7,13,14)           65.6849         estimate D2E/DX2                !
 ! D53   D(1,7,13,20)         -159.0704         estimate D2E/DX2                !
 ! D54   D(1,7,13,23)          -46.7733         estimate D2E/DX2                !
 ! D55   D(3,7,13,14)          108.7153         estimate D2E/DX2                !
 ! D56   D(3,7,13,20)         -116.04           estimate D2E/DX2                !
 ! D57   D(3,7,13,23)           -3.7429         estimate D2E/DX2                !
 ! D58   D(4,7,13,14)          138.7279         estimate D2E/DX2                !
 ! D59   D(4,7,13,20)          -86.0274         estimate D2E/DX2                !
 ! D60   D(4,7,13,23)           26.2696         estimate D2E/DX2                !
 ! D61   D(5,7,13,14)           88.1589         estimate D2E/DX2                !
 ! D62   D(5,7,13,20)         -136.5964         estimate D2E/DX2                !
 ! D63   D(5,7,13,23)          -24.2994         estimate D2E/DX2                !
 ! D64   D(15,7,13,14)          16.8867         estimate D2E/DX2                !
 ! D65   D(15,7,13,20)         152.1314         estimate D2E/DX2                !
 ! D66   D(15,7,13,23)         -95.5716         estimate D2E/DX2                !
 ! D67   D(17,7,13,14)           4.1381         estimate D2E/DX2                !
 ! D68   D(17,7,13,20)         139.3828         estimate D2E/DX2                !
 ! D69   D(17,7,13,23)        -108.3202         estimate D2E/DX2                !
 ! D70   D(1,7,15,14)         -156.8696         estimate D2E/DX2                !
 ! D71   D(1,7,15,16)          101.5346         estimate D2E/DX2                !
 ! D72   D(1,7,15,18)          -47.8321         estimate D2E/DX2                !
 ! D73   D(3,7,15,14)         -102.3818         estimate D2E/DX2                !
 ! D74   D(3,7,15,16)          156.0224         estimate D2E/DX2                !
 ! D75   D(3,7,15,18)            6.6557         estimate D2E/DX2                !
 ! D76   D(4,7,15,14)          -87.9762         estimate D2E/DX2                !
 ! D77   D(4,7,15,16)          170.428          estimate D2E/DX2                !
 ! D78   D(4,7,15,18)           21.0613         estimate D2E/DX2                !
 ! D79   D(5,7,15,14)          -95.6712         estimate D2E/DX2                !
 ! D80   D(5,7,15,16)          162.7329         estimate D2E/DX2                !
 ! D81   D(5,7,15,18)           13.3663         estimate D2E/DX2                !
 ! D82   D(13,7,15,14)         -12.7907         estimate D2E/DX2                !
 ! D83   D(13,7,15,16)        -114.3866         estimate D2E/DX2                !
 ! D84   D(13,7,15,18)          96.2468         estimate D2E/DX2                !
 ! D85   D(7,13,14,15)         -26.4224         estimate D2E/DX2                !
 ! D86   D(7,13,14,21)          90.0249         estimate D2E/DX2                !
 ! D87   D(7,13,14,22)        -149.4711         estimate D2E/DX2                !
 ! D88   D(20,13,14,15)       -168.295          estimate D2E/DX2                !
 ! D89   D(20,13,14,21)        -51.8477         estimate D2E/DX2                !
 ! D90   D(20,13,14,22)         68.6563         estimate D2E/DX2                !
 ! D91   D(23,13,14,15)         75.6391         estimate D2E/DX2                !
 ! D92   D(23,13,14,21)       -167.9136         estimate D2E/DX2                !
 ! D93   D(23,13,14,22)        -47.4097         estimate D2E/DX2                !
 ! D94   D(13,14,15,7)          19.7205         estimate D2E/DX2                !
 ! D95   D(13,14,15,16)        170.6183         estimate D2E/DX2                !
 ! D96   D(13,14,15,17)         47.4492         estimate D2E/DX2                !
 ! D97   D(13,14,15,18)        -77.4714         estimate D2E/DX2                !
 ! D98   D(21,14,15,7)         -98.2408         estimate D2E/DX2                !
 ! D99   D(21,14,15,16)         52.657          estimate D2E/DX2                !
 ! D100  D(21,14,15,17)        -70.5121         estimate D2E/DX2                !
 ! D101  D(21,14,15,18)        164.5673         estimate D2E/DX2                !
 ! D102  D(22,14,15,7)         144.9292         estimate D2E/DX2                !
 ! D103  D(22,14,15,16)        -64.1731         estimate D2E/DX2                !
 ! D104  D(22,14,15,17)        172.6578         estimate D2E/DX2                !
 ! D105  D(22,14,15,18)         47.7373         estimate D2E/DX2                !
 ! D106  D(7,15,16,24)        -114.4564         estimate D2E/DX2                !
 ! D107  D(14,15,16,24)        149.5584         estimate D2E/DX2                !
 ! D108  D(17,15,16,24)        -92.3011         estimate D2E/DX2                !
 ! D109  D(18,15,16,24)         34.1631         estimate D2E/DX2                !
 ! D110  D(7,15,18,19)          -9.5            estimate D2E/DX2                !
 ! D111  D(14,15,18,19)         74.7822         estimate D2E/DX2                !
 ! D112  D(16,15,18,19)       -174.7031         estimate D2E/DX2                !
 ! D113  D(17,15,18,19)        -47.0143         estimate D2E/DX2                !
 --------------------------------------------------------------------------------
 Trust Radius=3.00D-01 FncErr=1.00D-07 GrdErr=1.00D-06 EigMax=2.50D+02 EigMin=1.00D-04
 Number of steps in this run=    144 maximum allowed number of steps=    144.
 GradGradGradGradGradGradGradGradGradGradGradGradGradGradGradGradGradGrad

                          Input orientation:                          
 ---------------------------------------------------------------------
 Center     Atomic      Atomic             Coordinates (Angstroms)
 Number     Number       Type             X           Y           Z
 ---------------------------------------------------------------------
      1          7           0       -1.850550    1.120212   -1.494900
      2          6           0       -2.782934   -0.016162   -1.239472
      3         15           0       -2.191067   -0.764167    0.306301
      4          8           0       -2.358312    0.268341    1.401313
      5          8           0       -0.712807   -1.052549    0.086333
      6          8           0       -3.028519   -2.087388    0.542740
      7         38           0       -0.352432    1.496063    0.807058
      8          1           0       -3.560887   -2.091681    1.346194
      9          1           0       -2.333096    1.854811   -1.998762
     10          1           0       -3.788600    0.368123   -1.082076
     11          1           0       -2.814465   -0.733213   -2.059857
     12          1           0       -1.096915    0.810383   -2.099083
     13          7           0        1.485756   -0.194477    1.961094
     14          6           0        2.686004   -0.397220    1.115640
     15         15           0        2.241916   -0.140636   -0.624778
     16          8           0        3.635822   -0.141320   -1.353048
     17          8           0        1.454348    1.129898   -0.728853
     18          8           0        1.488017   -1.395133   -1.176790
     19          1           0        0.544983   -1.434695   -0.831568
     20          1           0        1.769468   -0.145786    2.933289
     21          1           0        3.431379    0.357857    1.364927
     22          1           0        3.146726   -1.378464    1.240403
     23          1           0        0.875295   -1.004092    1.878868
     24          1           0        3.656486   -0.464429   -2.261714
 ---------------------------------------------------------------------
                    Distance matrix (angstroms):
                    1          2          3          4          5
     1  N    0.000000
     2  C    1.491955   0.000000
     3  P    2.628909   1.816379   0.000000
     4  O    3.061299   2.689793   1.514297   0.000000
     5  O    2.918158   2.667823   1.522104   2.486285   0.000000
     6  O    3.978477   2.743459   1.583711   2.595339   2.577153
     7  Sr   2.772117   3.518870   2.956345   2.425694   2.672965
     8  H    4.616635   3.405680   2.172574   2.649326   3.283078
     9  H    1.013097   2.068675   3.491781   3.752070   3.927556
    10  H    2.119458   1.088032   2.400372   2.867560   3.583851
    11  H    2.164138   1.090040   2.447098   3.631925   3.020773
    12  H    1.014394   2.065131   3.076077   3.760013   2.897257
    13  N    4.980284   5.338270   4.072089   3.912086   3.014083
    14  C    5.449572   5.966660   4.957368   5.096048   3.611211
    15  P    4.369797   5.063839   4.572422   5.043254   3.172957
    16  O    5.631328   6.420980   6.090485   6.609385   4.670410
    17  O    3.392531   4.419133   4.236517   4.451546   3.181849
    18  O    4.192157   4.488486   4.016632   4.920163   2.560560
    19  H    3.564566   3.640556   3.038145   4.039209   1.603313
    20  H    5.857997   6.176819   4.792629   4.422332   3.884465
    21  H    6.054632   6.748368   5.830225   5.790497   4.560518
    22  H    6.220774   6.570123   5.453617   5.748331   4.041546
    23  H    4.829617   4.907411   3.454432   3.507614   2.395328
    24  H    5.781568   6.535445   6.393623   7.080431   4.994990
                    6          7          8          9         10
     6  O    0.000000
     7  Sr   4.480226   0.000000
     8  H    0.963832   4.843217   0.000000
     9  H    4.741706   3.453166   5.317048   0.000000
    10  H    3.040934   4.080236   3.463954   2.273554   0.000000
    11  H    2.941618   4.387537   3.742160   2.633120   1.765768
    12  H    4.371201   3.077347   5.134497   1.621431   2.911197
    13  N    5.096422   2.751120   5.426425   5.870577   6.115246
    14  C    5.986706   3.593305   6.476727   6.321591   6.880131
    15  P    5.738504   3.385201   6.431472   5.176908   6.069192
    16  O    7.196848   4.822163   7.929844   6.326885   7.446811
    17  O    5.662505   2.399491   6.311653   4.059913   5.309761
    18  O    4.882120   3.960041   5.687008   5.083176   5.564237
    19  H    3.883896   3.475600   4.693874   4.523995   4.700303
    20  H    5.701334   3.423301   5.892203   6.720011   6.876000
    21  H    6.955968   3.990483   7.408939   6.839916   7.623387
    22  H    6.254835   4.549155   6.746254   7.139658   7.519523
    23  H    4.265973   2.984437   4.598510   5.788187   5.692282
    24  H    7.428879   5.415932   8.231368   6.428306   7.583798
                   11         12         13         14         15
    11  H    0.000000
    12  H    2.309590   0.000000
    13  N    5.911868   4.915787   0.000000
    14  C    6.360175   5.109131   1.482057   0.000000
    15  P    5.289385   3.771711   2.694700   1.814415   0.000000
    16  O    6.515836   4.884783   3.950841   2.657453   1.572689
    17  O    4.844122   2.913513   2.998461   2.692809   1.498450
    18  O    4.441767   3.520909   3.359746   2.772406   1.564239
    19  H    3.645088   3.056599   3.197210   3.074401   2.144046
    20  H    6.803603   5.869853   1.013916   2.051123   3.589300
    21  H    7.206257   5.719230   2.108539   1.089894   2.371127
    22  H    6.844258   5.826810   2.163341   1.091179   2.414498
    23  H    5.403818   4.796459   1.017301   2.056570   2.980177
    24  H    6.479676   4.924065   4.755738   3.514665   2.187558
                   16         17         18         19         20
    16  O    0.000000
    17  O    2.600855   0.000000
    18  O    2.493227   2.564676   0.000000
    19  H    3.390876   2.722982   1.005015   0.000000
    20  H    4.675038   3.890753   4.304977   4.163507   0.000000
    21  H    2.770986   2.981378   3.648281   4.045876   2.339950
    22  H    2.914743   3.610263   2.931624   3.326453   2.506431
    23  H    4.337069   3.418980   3.140921   2.764233   1.627280
    24  H    0.964624   3.121050   2.597215   3.559239   5.536282
                   21         22         23         24
    21  H    0.000000
    22  H    1.763901   0.000000
    23  H    2.941532   2.388973   0.000000
    24  H    3.725500   3.655152   5.017039   0.000000
 Stoichiometry    C2H11N2O6P2Sr(1+)
 Framework group  C1[X(C2H11N2O6P2Sr)]
 Deg. of freedom    66
 Full point group                 C1      NOp   1
 Largest Abelian subgroup         C1      NOp   1
 Largest concise Abelian subgroup C1      NOp   1
                         Standard orientation:                         
 ---------------------------------------------------------------------
 Center     Atomic      Atomic             Coordinates (Angstroms)
 Number     Number       Type             X           Y           Z
 ---------------------------------------------------------------------
      1          7           0        1.565416   -0.092158    2.067434
      2          6           0        2.562106   -0.915378    1.322554
      3         15           0        2.153637   -0.666251   -0.429679
      4          8           0        2.386289    0.796536   -0.744673
      5          8           0        0.673420   -0.996101   -0.559898
      6          8           0        3.061395   -1.653307   -1.272198
      7         38           0        0.285418    1.530862    0.220262
      8          1           0        3.669358   -1.222340   -1.883444
      9          1           0        1.967333    0.228409    2.940397
     10          1           0        3.562485   -0.530286    1.508992
     11          1           0        2.541550   -1.967720    1.606000
     12          1           0        0.769168   -0.668864    2.317226
     13          7           0       -1.363722    0.805860   -1.859008
     14          6           0       -2.631842    0.193917   -1.396527
     15         15           0       -2.370053   -0.568657    0.228912
     16          8           0       -3.827249   -0.943343    0.686669
     17          8           0       -1.646819    0.412852    1.100075
     18          8           0       -1.624992   -1.934510    0.067129
     19          1           0       -0.651957   -1.796180   -0.142928
     20          1           0       -1.552934    1.392255   -2.664220
     21          1           0       -3.378375    0.976277   -1.260620
     22          1           0       -3.039367   -0.542667   -2.090818
     23          1           0       -0.732920    0.073831   -2.177010
     24          1           0       -3.923769   -1.716029    1.256000
 ---------------------------------------------------------------------
 Rotational constants (GHZ):           0.7405975           0.3451124           0.3150897
 Standard basis: def2TZVP (5D, 7F)
 There are   546 symmetry adapted cartesian basis functions of A   symmetry.
 There are   483 symmetry adapted basis functions of A   symmetry.
   483 basis functions,   794 primitive gaussians,   546 cartesian basis functions
    62 alpha electrons       62 beta electrons
       nuclear repulsion energy      1268.1464787299 Hartrees.
 NAtoms=   24 NActive=   24 NUniq=   24 SFac= 1.00D+00 NAtFMM=   60 NAOKFM=F Big=F
 Integral buffers will be    131072 words long.
 Raffenetti 2 integral format.
 Two-electron integral symmetry is turned on.
 Nuclear repulsion after empirical dispersion term =     1268.1426494283 Hartrees.
 One-electron integrals computed using PRISM.
   1 Symmetry operations used in ECPInt.
 ECPInt:  NShTT=   18721 NPrTT=   57965 LenC2=   17101 LenP2D=   38877.
 LDataN:  DoStor=T MaxTD1= 7 Len=  274
 NBasis=   483 RedAO= T EigKep=  4.46D-04  NBF=   483
 NBsUse=   483 1.00D-06 EigRej= -1.00D+00 NBFU=   483
 Defaulting to unpruned grid for atomic number  38.
 ExpMin= 2.33D-02 ExpMax= 5.24D+04 ExpMxC= 1.79D+03 IAcc=3 IRadAn=         5 AccDes= 0.00D+00
 Harris functional with IExCor= 1009 and IRadAn=       5 diagonalized for initial guess.
 HarFok:  IExCor= 1009 AccDes= 0.00D+00 IRadAn=         5 IDoV= 1 UseB2=F ITyADJ=14
 ICtDFT=  3500011 ScaDFX=  1.000000  1.000000  1.000000  1.000000
 Defaulting to unpruned grid for atomic number  38.
 FoFCou: FMM=F IPFlag=           0 FMFlag=      100000 FMFlg1=           0
         NFxFlg=           0 DoJE=T BraDBF=F KetDBF=T FulRan=T
         wScrn=  0.000000 ICntrl=       500 IOpCl=  0 I1Cent=   200000004 NGrid=           0
         NMat0=    1 NMatS0=      1 NMatT0=    0 NMatD0=    1 NMtDS0=    0 NMtDT0=    0
 Petite list used in FoFCou.
 Initial guess <Sx>= 0.0000 <Sy>= 0.0000 <Sz>= 0.0000 <S**2>=-0.0000 S=-0.0000
 Requested convergence on RMS density matrix=1.00D-08 within  32 cycles.
 Requested convergence on MAX density matrix=1.00D-06.
 Requested convergence on             energy=1.00D-06.
 No special actions if energy rises.
 Defaulting to unpruned grid for atomic number  38.
 Defaulting to unpruned grid for atomic number  38.
 Defaulting to unpruned grid for atomic number  38.
 Defaulting to unpruned grid for atomic number  38.
 Defaulting to unpruned grid for atomic number  38.
 Defaulting to unpruned grid for atomic number  38.
 Defaulting to unpruned grid for atomic number  38.
 Defaulting to unpruned grid for atomic number  38.
 Defaulting to unpruned grid for atomic number  38.
 Defaulting to unpruned grid for atomic number  38.
 Defaulting to unpruned grid for atomic number  38.
 Defaulting to unpruned grid for atomic number  38.
 Defaulting to unpruned grid for atomic number  38.
 Defaulting to unpruned grid for atomic number  38.
 Defaulting to unpruned grid for atomic number  38.
 Defaulting to unpruned grid for atomic number  38.
 Defaulting to unpruned grid for atomic number  38.
 Defaulting to unpruned grid for atomic number  38.
 Defaulting to unpruned grid for atomic number  38.
 Defaulting to unpruned grid for atomic number  38.
 Defaulting to unpruned grid for atomic number  38.
 Defaulting to unpruned grid for atomic number  38.
 Defaulting to unpruned grid for atomic number  38.
 Defaulting to unpruned grid for atomic number  38.
 Defaulting to unpruned grid for atomic number  38.
 Defaulting to unpruned grid for atomic number  38.
 Defaulting to unpruned grid for atomic number  38.
 Defaulting to unpruned grid for atomic number  38.
 Defaulting to unpruned grid for atomic number  38.
 Defaulting to unpruned grid for atomic number  38.
 Defaulting to unpruned grid for atomic number  38.
 Defaulting to unpruned grid for atomic number  38.
 Defaulting to unpruned grid for atomic number  38.
 Defaulting to unpruned grid for atomic number  38.
 Defaulting to unpruned grid for atomic number  38.
 Defaulting to unpruned grid for atomic number  38.
 Defaulting to unpruned grid for atomic number  38.
 Defaulting to unpruned grid for atomic number  38.
 Defaulting to unpruned grid for atomic number  38.
 Defaulting to unpruned grid for atomic number  38.
 Defaulting to unpruned grid for atomic number  38.
 Defaulting to unpruned grid for atomic number  38.
 Defaulting to unpruned grid for atomic number  38.
 Defaulting to unpruned grid for atomic number  38.
 Defaulting to unpruned grid for atomic number  38.
 Defaulting to unpruned grid for atomic number  38.
 Defaulting to unpruned grid for atomic number  38.
 Defaulting to unpruned grid for atomic number  38.
 SCF Done:  E(UM06) =  -1357.22553177     A.U. after   12 cycles
            NFock= 12  Conv=0.91D-08     -V/T= 2.0188
 <Sx>= 0.0000 <Sy>= 0.0000 <Sz>= 0.0000 <S**2>=-0.0000 S=-0.0000
 <L.S>= 0.000000000000E+00
 Annihilation of the first spin contaminant:
 S**2 before annihilation    -0.0000,   after    -0.0000
 QCSCF skips out because SCF is already converged.

 **********************************************************************

            Population analysis using the SCF Density.

 **********************************************************************

 Orbital symmetries:
 Alpha Orbitals:
       Occupied  (A) (A) (A) (A) (A) (A) (A) (A) (A) (A) (A) (A)
                 (A) (A) (A) (A) (A) (A) (A) (A) (A) (A) (A) (A)
                 (A) (A) (A) (A) (A) (A) (A) (A) (A) (A) (A) (A)
                 (A) (A) (A) (A) (A) (A) (A) (A) (A) (A) (A) (A)
                 (A) (A) (A) (A) (A) (A) (A) (A) (A) (A) (A) (A)
                 (A) (A)
       Virtual   (A) (A) (A) (A) (A) (A) (A) (A) (A) (A) (A) (A)
                 (A) (A) (A) (A) (A) (A) (A) (A) (A) (A) (A) (A)
                 (A) (A) (A) (A) (A) (A) (A) (A) (A) (A) (A) (A)
                 (A) (A) (A) (A) (A) (A) (A) (A) (A) (A) (A) (A)
                 (A) (A) (A) (A) (A) (A) (A) (A) (A) (A) (A) (A)
                 (A) (A) (A) (A) (A) (A) (A) (A) (A) (A) (A) (A)
                 (A) (A) (A) (A) (A) (A) (A) (A) (A) (A) (A) (A)
                 (A) (A) (A) (A) (A) (A) (A) (A) (A) (A) (A) (A)
                 (A) (A) (A) (A) (A) (A) (A) (A) (A) (A) (A) (A)
                 (A) (A) (A) (A) (A) (A) (A) (A) (A) (A) (A) (A)
                 (A) (A) (A) (A) (A) (A) (A) (A) (A) (A) (A) (A)
                 (A) (A) (A) (A) (A) (A) (A) (A) (A) (A) (A) (A)
                 (A) (A) (A) (A) (A) (A) (A) (A) (A) (A) (A) (A)
                 (A) (A) (A) (A) (A) (A) (A) (A) (A) (A) (A) (A)
                 (A) (A) (A) (A) (A) (A) (A) (A) (A) (A) (A) (A)
                 (A) (A) (A) (A) (A) (A) (A) (A) (A) (A) (A) (A)
                 (A) (A) (A) (A) (A) (A) (A) (A) (A) (A) (A) (A)
                 (A) (A) (A) (A) (A) (A) (A) (A) (A) (A) (A) (A)
                 (A) (A) (A) (A) (A) (A) (A) (A) (A) (A) (A) (A)
                 (A) (A) (A) (A) (A) (A) (A) (A) (A) (A) (A) (A)
                 (A) (A) (A) (A) (A) (A) (A) (A) (A) (A) (A) (A)
                 (A) (A) (A) (A) (A) (A) (A) (A) (A) (A) (A) (A)
                 (A) (A) (A) (A) (A) (A) (A) (A) (A) (A) (A) (A)
                 (A) (A) (A) (A) (A) (A) (A) (A) (A) (A) (A) (A)
                 (A) (A) (A) (A) (A) (A) (A) (A) (A) (A) (A) (A)
                 (A) (A) (A) (A) (A) (A) (A) (A) (A) (A) (A) (A)
                 (A) (A) (A) (A) (A) (A) (A) (A) (A) (A) (A) (A)
                 (A) (A) (A) (A) (A) (A) (A) (A) (A) (A) (A) (A)
                 (A) (A) (A) (A) (A) (A) (A) (A) (A) (A) (A) (A)
                 (A) (A) (A) (A) (A) (A) (A) (A) (A) (A) (A) (A)
                 (A) (A) (A) (A) (A) (A) (A) (A) (A) (A) (A) (A)
                 (A) (A) (A) (A) (A) (A) (A) (A) (A) (A) (A) (A)
                 (A) (A) (A) (A) (A) (A) (A) (A) (A) (A) (A) (A)
                 (A) (A) (A) (A) (A) (A) (A) (A) (A) (A) (A) (A)
                 (A) (A) (A) (A) (A) (A) (A) (A) (A) (A) (A) (A)
                 (A)
 Beta  Orbitals:
       Occupied  (A) (A) (A) (A) (A) (A) (A) (A) (A) (A) (A) (A)
                 (A) (A) (A) (A) (A) (A) (A) (A) (A) (A) (A) (A)
                 (A) (A) (A) (A) (A) (A) (A) (A) (A) (A) (A) (A)
                 (A) (A) (A) (A) (A) (A) (A) (A) (A) (A) (A) (A)
                 (A) (A) (A) (A) (A) (A) (A) (A) (A) (A) (A) (A)
                 (A) (A)
       Virtual   (A) (A) (A) (A) (A) (A) (A) (A) (A) (A) (A) (A)
                 (A) (A) (A) (A) (A) (A) (A) (A) (A) (A) (A) (A)
                 (A) (A) (A) (A) (A) (A) (A) (A) (A) (A) (A) (A)
                 (A) (A) (A) (A) (A) (A) (A) (A) (A) (A) (A) (A)
                 (A) (A) (A) (A) (A) (A) (A) (A) (A) (A) (A) (A)
                 (A) (A) (A) (A) (A) (A) (A) (A) (A) (A) (A) (A)
                 (A) (A) (A) (A) (A) (A) (A) (A) (A) (A) (A) (A)
                 (A) (A) (A) (A) (A) (A) (A) (A) (A) (A) (A) (A)
                 (A) (A) (A) (A) (A) (A) (A) (A) (A) (A) (A) (A)
                 (A) (A) (A) (A) (A) (A) (A) (A) (A) (A) (A) (A)
                 (A) (A) (A) (A) (A) (A) (A) (A) (A) (A) (A) (A)
                 (A) (A) (A) (A) (A) (A) (A) (A) (A) (A) (A) (A)
                 (A) (A) (A) (A) (A) (A) (A) (A) (A) (A) (A) (A)
                 (A) (A) (A) (A) (A) (A) (A) (A) (A) (A) (A) (A)
                 (A) (A) (A) (A) (A) (A) (A) (A) (A) (A) (A) (A)
                 (A) (A) (A) (A) (A) (A) (A) (A) (A) (A) (A) (A)
                 (A) (A) (A) (A) (A) (A) (A) (A) (A) (A) (A) (A)
                 (A) (A) (A) (A) (A) (A) (A) (A) (A) (A) (A) (A)
                 (A) (A) (A) (A) (A) (A) (A) (A) (A) (A) (A) (A)
                 (A) (A) (A) (A) (A) (A) (A) (A) (A) (A) (A) (A)
                 (A) (A) (A) (A) (A) (A) (A) (A) (A) (A) (A) (A)
                 (A) (A) (A) (A) (A) (A) (A) (A) (A) (A) (A) (A)
                 (A) (A) (A) (A) (A) (A) (A) (A) (A) (A) (A) (A)
                 (A) (A) (A) (A) (A) (A) (A) (A) (A) (A) (A) (A)
                 (A) (A) (A) (A) (A) (A) (A) (A) (A) (A) (A) (A)
                 (A) (A) (A) (A) (A) (A) (A) (A) (A) (A) (A) (A)
                 (A) (A) (A) (A) (A) (A) (A) (A) (A) (A) (A) (A)
                 (A) (A) (A) (A) (A) (A) (A) (A) (A) (A) (A) (A)
                 (A) (A) (A) (A) (A) (A) (A) (A) (A) (A) (A) (A)
                 (A) (A) (A) (A) (A) (A) (A) (A) (A) (A) (A) (A)
                 (A) (A) (A) (A) (A) (A) (A) (A) (A) (A) (A) (A)
                 (A) (A) (A) (A) (A) (A) (A) (A) (A) (A) (A) (A)
                 (A) (A) (A) (A) (A) (A) (A) (A) (A) (A) (A) (A)
                 (A) (A) (A) (A) (A) (A) (A) (A) (A) (A) (A) (A)
                 (A) (A) (A) (A) (A) (A) (A) (A) (A) (A) (A) (A)
                 (A)
 The electronic state is 1-A.
 Alpha  occ. eigenvalues --  -77.47383 -77.43886 -19.37699 -19.35567 -19.35528
 Alpha  occ. eigenvalues --  -19.31904 -19.30106 -19.29259 -14.54433 -14.53413
 Alpha  occ. eigenvalues --  -10.41444 -10.39430  -6.87999  -6.84556  -5.00094
 Alpha  occ. eigenvalues --   -4.99903  -4.99778  -4.96633  -4.96435  -4.96373
 Alpha  occ. eigenvalues --   -1.69870  -1.24245  -1.21078  -1.18839  -1.14692
 Alpha  occ. eigenvalues --   -1.14206  -1.09702  -1.06348  -1.04899  -1.00224
 Alpha  occ. eigenvalues --   -0.99855  -0.99124  -0.85749  -0.83283  -0.76533
 Alpha  occ. eigenvalues --   -0.73400  -0.70619  -0.67894  -0.66060  -0.63821
 Alpha  occ. eigenvalues --   -0.63307  -0.61139  -0.59967  -0.59800  -0.58655
 Alpha  occ. eigenvalues --   -0.57328  -0.56935  -0.55305  -0.53853  -0.53445
 Alpha  occ. eigenvalues --   -0.52184  -0.51954  -0.49687  -0.48599  -0.47761
 Alpha  occ. eigenvalues --   -0.47225  -0.46559  -0.45474  -0.44675  -0.44313
 Alpha  occ. eigenvalues --   -0.42769  -0.42139
 Alpha virt. eigenvalues --   -0.18701  -0.14829  -0.13162  -0.13031  -0.11546
 Alpha virt. eigenvalues --   -0.10893  -0.10201  -0.10077  -0.08353  -0.06929
 Alpha virt. eigenvalues --   -0.06059  -0.05449  -0.05125  -0.04773  -0.04191
 Alpha virt. eigenvalues --   -0.03147  -0.02944  -0.02575  -0.02138  -0.01523
 Alpha virt. eigenvalues --   -0.01012  -0.00586   0.00240   0.01130   0.01548
 Alpha virt. eigenvalues --    0.01750   0.02275   0.02504   0.03277   0.03690
 Alpha virt. eigenvalues --    0.03887   0.04497   0.04743   0.06075   0.06196
 Alpha virt. eigenvalues --    0.07544   0.08845   0.09564   0.12310   0.13096
 Alpha virt. eigenvalues --    0.13324   0.15051   0.15871   0.16454   0.17460
 Alpha virt. eigenvalues --    0.18090   0.18328   0.19367   0.20058   0.20636
 Alpha virt. eigenvalues --    0.22033   0.23796   0.24200   0.25527   0.26085
 Alpha virt. eigenvalues --    0.26593   0.27060   0.28279   0.28519   0.28997
 Alpha virt. eigenvalues --    0.30482   0.31294   0.31764   0.32840   0.33473
 Alpha virt. eigenvalues --    0.34207   0.34456   0.35640   0.36101   0.37238
 Alpha virt. eigenvalues --    0.37628   0.37693   0.38379   0.39308   0.39546
 Alpha virt. eigenvalues --    0.39861   0.40467   0.41417   0.42509   0.42898
 Alpha virt. eigenvalues --    0.43254   0.43933   0.45207   0.46692   0.47846
 Alpha virt. eigenvalues --    0.48605   0.49305   0.50277   0.51514   0.51835
 Alpha virt. eigenvalues --    0.54128   0.54608   0.55203   0.56103   0.57503
 Alpha virt. eigenvalues --    0.58314   0.58849   0.59274   0.60193   0.60489
 Alpha virt. eigenvalues --    0.61584   0.63391   0.63897   0.66254   0.68416
 Alpha virt. eigenvalues --    0.69373   0.70447   0.71656   0.72087   0.73823
 Alpha virt. eigenvalues --    0.74172   0.75012   0.75597   0.76882   0.78647
 Alpha virt. eigenvalues --    0.79388   0.80174   0.81896   0.83461   0.87288
 Alpha virt. eigenvalues --    0.89403   0.90321   0.93092   0.94693   0.96270
 Alpha virt. eigenvalues --    0.96514   1.00264   1.05655   1.06394   1.06761
 Alpha virt. eigenvalues --    1.08632   1.09341   1.09954   1.10947   1.12665
 Alpha virt. eigenvalues --    1.13254   1.14603   1.15043   1.15505   1.18936
 Alpha virt. eigenvalues --    1.20394   1.20655   1.22753   1.23595   1.24996
 Alpha virt. eigenvalues --    1.26234   1.27494   1.27815   1.29098   1.31285
 Alpha virt. eigenvalues --    1.31600   1.32300   1.33604   1.34074   1.34234
 Alpha virt. eigenvalues --    1.37156   1.37836   1.38585   1.40072   1.41043
 Alpha virt. eigenvalues --    1.41465   1.42872   1.46073   1.47832   1.49236
 Alpha virt. eigenvalues --    1.49827   1.51680   1.53329   1.54238   1.58094
 Alpha virt. eigenvalues --    1.59919   1.61179   1.63368   1.63623   1.64297
 Alpha virt. eigenvalues --    1.64738   1.65431   1.67677   1.69662   1.70002
 Alpha virt. eigenvalues --    1.71895   1.74648   1.76053   1.77253   1.77310
 Alpha virt. eigenvalues --    1.77975   1.78884   1.79944   1.81477   1.82683
 Alpha virt. eigenvalues --    1.82811   1.83306   1.84220   1.85369   1.86905
 Alpha virt. eigenvalues --    1.87768   1.87841   1.89114   1.89735   1.91751
 Alpha virt. eigenvalues --    1.93405   1.95570   1.96011   1.96184   1.98281
 Alpha virt. eigenvalues --    2.00582   2.03061   2.03169   2.04106   2.05436
 Alpha virt. eigenvalues --    2.06273   2.08563   2.09355   2.10858   2.11427
 Alpha virt. eigenvalues --    2.12117   2.13966   2.15092   2.18488   2.19546
 Alpha virt. eigenvalues --    2.19881   2.21572   2.22520   2.24017   2.24474
 Alpha virt. eigenvalues --    2.25454   2.26442   2.27793   2.30501   2.32244
 Alpha virt. eigenvalues --    2.33942   2.35349   2.36249   2.40930   2.41858
 Alpha virt. eigenvalues --    2.42253   2.45334   2.46401   2.47283   2.48662
 Alpha virt. eigenvalues --    2.49477   2.53146   2.54539   2.56116   2.56595
 Alpha virt. eigenvalues --    2.57767   2.60570   2.63224   2.66617   2.68152
 Alpha virt. eigenvalues --    2.74246   2.75954   2.76461   2.77889   2.82096
 Alpha virt. eigenvalues --    2.83310   2.84404   2.84785   2.87213   2.89042
 Alpha virt. eigenvalues --    2.90581   2.90643   2.92941   2.94382   2.95200
 Alpha virt. eigenvalues --    2.96931   2.99586   3.00987   3.01914   3.04419
 Alpha virt. eigenvalues --    3.05420   3.06768   3.08208   3.09452   3.13907
 Alpha virt. eigenvalues --    3.14296   3.17471   3.19204   3.20078   3.20440
 Alpha virt. eigenvalues --    3.23375   3.24823   3.33490   3.34593   3.36825
 Alpha virt. eigenvalues --    3.37389   3.41117   3.41930   3.43724   3.51961
 Alpha virt. eigenvalues --    3.57253   3.61801   3.65926   3.66830   3.67262
 Alpha virt. eigenvalues --    3.68919   3.72039   3.81643   3.82682   3.85465
 Alpha virt. eigenvalues --    3.86176   3.87447   3.90351   3.94055   3.95905
 Alpha virt. eigenvalues --    4.14479   4.15510   4.18123   4.20052   4.48016
 Alpha virt. eigenvalues --    4.48953   4.57869   4.58974   4.64809   4.65769
 Alpha virt. eigenvalues --    4.70648   4.75369   4.84692   4.85702   4.87910
 Alpha virt. eigenvalues --    4.89164   4.94597   4.95857   4.97779   4.98202
 Alpha virt. eigenvalues --    4.99302   5.00589   5.02901   5.03072   5.03530
 Alpha virt. eigenvalues --    5.03913   5.04398   5.05242   5.05759   5.06026
 Alpha virt. eigenvalues --    5.06681   5.07657   5.08385   5.09403   5.10902
 Alpha virt. eigenvalues --    5.11845   5.13270   5.13553   5.14843   5.17183
 Alpha virt. eigenvalues --    5.18326   5.19237   5.21299   5.23055   5.23700
 Alpha virt. eigenvalues --    5.24778   5.25603   5.26164   5.30034   5.32838
 Alpha virt. eigenvalues --    5.33230   5.35404   5.38862   5.39399   5.40272
 Alpha virt. eigenvalues --    5.41115   5.45551   5.46318   5.48620   5.50458
 Alpha virt. eigenvalues --    5.52211   5.54766   5.55173   6.07635   6.09177
 Alpha virt. eigenvalues --    6.11467   6.27855   6.29237   6.29840   6.32077
 Alpha virt. eigenvalues --    6.34947   6.37465   6.39543   6.40443   6.44890
 Alpha virt. eigenvalues --    6.47125   6.50853   6.54319   6.56862   6.58431
 Alpha virt. eigenvalues --    6.61424   6.65784   6.66970   6.69216   6.70144
 Alpha virt. eigenvalues --    6.71208   6.73252   6.75751   6.77795   6.82110
 Alpha virt. eigenvalues --    6.85399   6.86154   6.90481   6.92614   7.03384
 Alpha virt. eigenvalues --    7.14429   7.73126   7.77121   7.93816   8.04754
 Alpha virt. eigenvalues --    8.09473   8.10418  16.84504  16.95581  17.60565
 Alpha virt. eigenvalues --   22.15321  22.16243  31.82398  31.82803  43.48966
 Alpha virt. eigenvalues --   43.50039  43.54160  43.55328  43.61790  43.71135
 Alpha virt. eigenvalues --   69.47478
  Beta  occ. eigenvalues --  -77.47383 -77.43886 -19.37699 -19.35567 -19.35528
  Beta  occ. eigenvalues --  -19.31904 -19.30106 -19.29259 -14.54433 -14.53413
  Beta  occ. eigenvalues --  -10.41444 -10.39430  -6.87999  -6.84556  -5.00094
  Beta  occ. eigenvalues --   -4.99903  -4.99778  -4.96633  -4.96435  -4.96373
  Beta  occ. eigenvalues --   -1.69870  -1.24245  -1.21078  -1.18839  -1.14692
  Beta  occ. eigenvalues --   -1.14206  -1.09702  -1.06348  -1.04899  -1.00224
  Beta  occ. eigenvalues --   -0.99855  -0.99124  -0.85749  -0.83283  -0.76533
  Beta  occ. eigenvalues --   -0.73400  -0.70619  -0.67894  -0.66060  -0.63821
  Beta  occ. eigenvalues --   -0.63307  -0.61139  -0.59967  -0.59800  -0.58655
  Beta  occ. eigenvalues --   -0.57328  -0.56935  -0.55305  -0.53853  -0.53445
  Beta  occ. eigenvalues --   -0.52184  -0.51954  -0.49687  -0.48599  -0.47761
  Beta  occ. eigenvalues --   -0.47225  -0.46559  -0.45474  -0.44675  -0.44313
  Beta  occ. eigenvalues --   -0.42769  -0.42139
  Beta virt. eigenvalues --   -0.18701  -0.14829  -0.13162  -0.13031  -0.11546
  Beta virt. eigenvalues --   -0.10893  -0.10201  -0.10077  -0.08353  -0.06929
  Beta virt. eigenvalues --   -0.06059  -0.05449  -0.05125  -0.04773  -0.04191
  Beta virt. eigenvalues --   -0.03147  -0.02944  -0.02575  -0.02138  -0.01523
  Beta virt. eigenvalues --   -0.01012  -0.00586   0.00240   0.01130   0.01548
  Beta virt. eigenvalues --    0.01750   0.02275   0.02504   0.03277   0.03690
  Beta virt. eigenvalues --    0.03887   0.04497   0.04743   0.06075   0.06196
  Beta virt. eigenvalues --    0.07544   0.08845   0.09564   0.12310   0.13096
  Beta virt. eigenvalues --    0.13324   0.15051   0.15871   0.16454   0.17460
  Beta virt. eigenvalues --    0.18090   0.18328   0.19367   0.20058   0.20636
  Beta virt. eigenvalues --    0.22033   0.23796   0.24200   0.25527   0.26085
  Beta virt. eigenvalues --    0.26593   0.27060   0.28279   0.28519   0.28997
  Beta virt. eigenvalues --    0.30482   0.31294   0.31764   0.32840   0.33473
  Beta virt. eigenvalues --    0.34207   0.34456   0.35640   0.36101   0.37238
  Beta virt. eigenvalues --    0.37628   0.37693   0.38379   0.39308   0.39546
  Beta virt. eigenvalues --    0.39861   0.40467   0.41417   0.42509   0.42898
  Beta virt. eigenvalues --    0.43254   0.43933   0.45207   0.46692   0.47846
  Beta virt. eigenvalues --    0.48605   0.49305   0.50277   0.51514   0.51835
  Beta virt. eigenvalues --    0.54128   0.54608   0.55203   0.56103   0.57503
  Beta virt. eigenvalues --    0.58314   0.58849   0.59274   0.60193   0.60489
  Beta virt. eigenvalues --    0.61584   0.63391   0.63897   0.66254   0.68416
  Beta virt. eigenvalues --    0.69373   0.70447   0.71656   0.72087   0.73823
  Beta virt. eigenvalues --    0.74172   0.75012   0.75597   0.76882   0.78647
  Beta virt. eigenvalues --    0.79388   0.80174   0.81896   0.83461   0.87288
  Beta virt. eigenvalues --    0.89403   0.90321   0.93092   0.94693   0.96270
  Beta virt. eigenvalues --    0.96514   1.00264   1.05655   1.06394   1.06761
  Beta virt. eigenvalues --    1.08632   1.09341   1.09954   1.10947   1.12665
  Beta virt. eigenvalues --    1.13254   1.14603   1.15043   1.15505   1.18936
  Beta virt. eigenvalues --    1.20394   1.20655   1.22753   1.23595   1.24996
  Beta virt. eigenvalues --    1.26234   1.27494   1.27815   1.29098   1.31285
  Beta virt. eigenvalues --    1.31600   1.32300   1.33604   1.34074   1.34234
  Beta virt. eigenvalues --    1.37156   1.37836   1.38585   1.40072   1.41043
  Beta virt. eigenvalues --    1.41465   1.42872   1.46073   1.47832   1.49236
  Beta virt. eigenvalues --    1.49827   1.51680   1.53329   1.54238   1.58094
  Beta virt. eigenvalues --    1.59919   1.61179   1.63368   1.63623   1.64297
  Beta virt. eigenvalues --    1.64738   1.65431   1.67677   1.69662   1.70002
  Beta virt. eigenvalues --    1.71895   1.74648   1.76053   1.77253   1.77310
  Beta virt. eigenvalues --    1.77975   1.78884   1.79944   1.81477   1.82683
  Beta virt. eigenvalues --    1.82811   1.83306   1.84220   1.85369   1.86905
  Beta virt. eigenvalues --    1.87768   1.87841   1.89114   1.89735   1.91751
  Beta virt. eigenvalues --    1.93405   1.95570   1.96011   1.96184   1.98281
  Beta virt. eigenvalues --    2.00582   2.03061   2.03169   2.04106   2.05436
  Beta virt. eigenvalues --    2.06273   2.08563   2.09355   2.10858   2.11427
  Beta virt. eigenvalues --    2.12117   2.13966   2.15092   2.18488   2.19546
  Beta virt. eigenvalues --    2.19881   2.21572   2.22520   2.24017   2.24474
  Beta virt. eigenvalues --    2.25454   2.26442   2.27793   2.30501   2.32244
  Beta virt. eigenvalues --    2.33942   2.35349   2.36249   2.40930   2.41858
  Beta virt. eigenvalues --    2.42253   2.45334   2.46401   2.47283   2.48662
  Beta virt. eigenvalues --    2.49477   2.53146   2.54539   2.56116   2.56595
  Beta virt. eigenvalues --    2.57767   2.60570   2.63224   2.66617   2.68152
  Beta virt. eigenvalues --    2.74246   2.75954   2.76461   2.77889   2.82096
  Beta virt. eigenvalues --    2.83310   2.84404   2.84785   2.87213   2.89042
  Beta virt. eigenvalues --    2.90581   2.90643   2.92941   2.94382   2.95200
  Beta virt. eigenvalues --    2.96931   2.99586   3.00987   3.01914   3.04419
  Beta virt. eigenvalues --    3.05420   3.06768   3.08208   3.09452   3.13907
  Beta virt. eigenvalues --    3.14296   3.17471   3.19204   3.20078   3.20440
  Beta virt. eigenvalues --    3.23375   3.24823   3.33490   3.34593   3.36825
  Beta virt. eigenvalues --    3.37389   3.41117   3.41930   3.43724   3.51961
  Beta virt. eigenvalues --    3.57253   3.61801   3.65926   3.66830   3.67262
  Beta virt. eigenvalues --    3.68919   3.72039   3.81643   3.82682   3.85465
  Beta virt. eigenvalues --    3.86176   3.87447   3.90351   3.94055   3.95905
  Beta virt. eigenvalues --    4.14479   4.15510   4.18123   4.20052   4.48016
  Beta virt. eigenvalues --    4.48953   4.57869   4.58974   4.64809   4.65769
  Beta virt. eigenvalues --    4.70648   4.75369   4.84692   4.85702   4.87910
  Beta virt. eigenvalues --    4.89164   4.94597   4.95857   4.97779   4.98202
  Beta virt. eigenvalues --    4.99302   5.00589   5.02901   5.03072   5.03530
  Beta virt. eigenvalues --    5.03913   5.04398   5.05242   5.05759   5.06026
  Beta virt. eigenvalues --    5.06681   5.07657   5.08385   5.09403   5.10902
  Beta virt. eigenvalues --    5.11845   5.13270   5.13553   5.14843   5.17183
  Beta virt. eigenvalues --    5.18326   5.19237   5.21299   5.23055   5.23700
  Beta virt. eigenvalues --    5.24778   5.25603   5.26164   5.30034   5.32838
  Beta virt. eigenvalues --    5.33230   5.35404   5.38862   5.39399   5.40272
  Beta virt. eigenvalues --    5.41115   5.45551   5.46318   5.48620   5.50458
  Beta virt. eigenvalues --    5.52211   5.54766   5.55173   6.07635   6.09177
  Beta virt. eigenvalues --    6.11467   6.27855   6.29237   6.29840   6.32077
  Beta virt. eigenvalues --    6.34947   6.37465   6.39543   6.40443   6.44890
  Beta virt. eigenvalues --    6.47125   6.50853   6.54319   6.56862   6.58431
  Beta virt. eigenvalues --    6.61424   6.65784   6.66970   6.69216   6.70144
  Beta virt. eigenvalues --    6.71208   6.73252   6.75751   6.77795   6.82110
  Beta virt. eigenvalues --    6.85399   6.86154   6.90481   6.92614   7.03384
  Beta virt. eigenvalues --    7.14429   7.73126   7.77121   7.93816   8.04754
  Beta virt. eigenvalues --    8.09473   8.10418  16.84504  16.95581  17.60565
  Beta virt. eigenvalues --   22.15321  22.16243  31.82398  31.82803  43.48966
  Beta virt. eigenvalues --   43.50039  43.54160  43.55328  43.61790  43.71135
  Beta virt. eigenvalues --   69.47478
          Condensed to atoms (all electrons):
               1          2          3          4          5          6
     1  N    6.832617   0.138013  -0.063382  -0.008220  -0.007359   0.002157
     2  C    0.138013   4.951238   0.355294  -0.018576  -0.032481  -0.030564
     3  P   -0.063382   0.355294  12.762061   0.402235   0.424501   0.379465
     4  O   -0.008220  -0.018576   0.402235   8.269549  -0.050350  -0.023841
     5  O   -0.007359  -0.032481   0.424501  -0.050350   8.317927  -0.021169
     6  O    0.002157  -0.030564   0.379465  -0.023841  -0.021169   7.887172
     7  Sr   0.053329  -0.000128  -0.016577   0.071925   0.071916   0.004877
     8  H   -0.000173   0.002132  -0.006407   0.001172   0.001001   0.293397
     9  H    0.361878  -0.028378   0.008564  -0.001068   0.000404  -0.000119
    10  H   -0.022724   0.406875  -0.027701  -0.002546   0.002776   0.003416
    11  H   -0.030733   0.418254  -0.038267   0.002161   0.000405   0.002108
    12  H    0.347251  -0.025362   0.002802  -0.000057   0.000761  -0.000005
    13  N    0.000135  -0.000119   0.001461  -0.000588  -0.018664  -0.000007
    14  C    0.000041  -0.000034   0.000434  -0.000103  -0.000635  -0.000006
    15  P   -0.000690   0.000521  -0.000333  -0.000107   0.007289   0.000024
    16  O    0.000004  -0.000002   0.000010  -0.000000  -0.000049  -0.000000
    17  O   -0.007769  -0.000008   0.000537   0.000310  -0.010818   0.000001
    18  O   -0.000203  -0.000082   0.002089  -0.000071  -0.050660  -0.000035
    19  H    0.000803  -0.000810  -0.005561   0.000536   0.056383  -0.000137
    20  H   -0.000009   0.000002  -0.000144  -0.000129   0.000722  -0.000002
    21  H   -0.000008  -0.000001  -0.000008  -0.000005  -0.000011   0.000000
    22  H    0.000005  -0.000004   0.000011  -0.000002  -0.000339  -0.000001
    23  H   -0.000002  -0.000033   0.000119   0.000209   0.006267  -0.000213
    24  H   -0.000002   0.000001  -0.000005  -0.000000   0.000024   0.000000
               7          8          9         10         11         12
     1  N    0.053329  -0.000173   0.361878  -0.022724  -0.030733   0.347251
     2  C   -0.000128   0.002132  -0.028378   0.406875   0.418254  -0.025362
     3  P   -0.016577  -0.006407   0.008564  -0.027701  -0.038267   0.002802
     4  O    0.071925   0.001172  -0.001068  -0.002546   0.002161  -0.000057
     5  O    0.071916   0.001001   0.000404   0.002776   0.000405   0.000761
     6  O    0.004877   0.293397  -0.000119   0.003416   0.002108  -0.000005
     7  Sr   8.362913   0.001271  -0.004006  -0.001262   0.002792   0.001539
     8  H    0.001271   0.334536   0.000014  -0.000068  -0.000364   0.000007
     9  H   -0.004006   0.000014   0.433660  -0.009352  -0.002763  -0.020630
    10  H   -0.001262  -0.000068  -0.009352   0.517122  -0.017684   0.003653
    11  H    0.002792  -0.000364  -0.002763  -0.017684   0.519160  -0.010485
    12  H    0.001539   0.000007  -0.020630   0.003653  -0.010485   0.431830
    13  N    0.043440  -0.000001  -0.000005  -0.000002   0.000004   0.000033
    14  C   -0.007048   0.000001  -0.000002  -0.000000  -0.000003  -0.000032
    15  P   -0.001534  -0.000002   0.000005   0.000005   0.000029  -0.000112
    16  O    0.001072   0.000000  -0.000000  -0.000000   0.000000  -0.000029
    17  O    0.046029   0.000001  -0.000144  -0.000010  -0.000100   0.001371
    18  O   -0.001091   0.000003  -0.000009  -0.000005  -0.000029   0.001420
    19  H   -0.003516  -0.000028  -0.000047   0.000097   0.000072   0.000056
    20  H   -0.001760  -0.000001  -0.000000  -0.000000  -0.000000   0.000001
    21  H   -0.001051   0.000000   0.000000   0.000000   0.000000  -0.000001
    22  H    0.002006  -0.000000  -0.000000   0.000000   0.000000   0.000001
    23  H   -0.000561   0.000015  -0.000001  -0.000003  -0.000002  -0.000013
    24  H    0.000861  -0.000000  -0.000000  -0.000000  -0.000000  -0.000006
              13         14         15         16         17         18
     1  N    0.000135   0.000041  -0.000690   0.000004  -0.007769  -0.000203
     2  C   -0.000119  -0.000034   0.000521  -0.000002  -0.000008  -0.000082
     3  P    0.001461   0.000434  -0.000333   0.000010   0.000537   0.002089
     4  O   -0.000588  -0.000103  -0.000107  -0.000000   0.000310  -0.000071
     5  O   -0.018664  -0.000635   0.007289  -0.000049  -0.010818  -0.050660
     6  O   -0.000007  -0.000006   0.000024  -0.000000   0.000001  -0.000035
     7  Sr   0.043440  -0.007048  -0.001534   0.001072   0.046029  -0.001091
     8  H   -0.000001   0.000001  -0.000002   0.000000   0.000001   0.000003
     9  H   -0.000005  -0.000002   0.000005  -0.000000  -0.000144  -0.000009
    10  H   -0.000002  -0.000000   0.000005  -0.000000  -0.000010  -0.000005
    11  H    0.000004  -0.000003   0.000029   0.000000  -0.000100  -0.000029
    12  H    0.000033  -0.000032  -0.000112  -0.000029   0.001371   0.001420
    13  N    6.861411   0.150409  -0.050577   0.001757  -0.012440   0.000783
    14  C    0.150409   4.949995   0.338487  -0.029633  -0.016894  -0.014851
    15  P   -0.050577   0.338487  12.679655   0.414656   0.453447   0.361931
    16  O    0.001757  -0.029633   0.414656   7.839109  -0.022143  -0.025603
    17  O   -0.012440  -0.016894   0.453447  -0.022143   8.235213  -0.029323
    18  O    0.000783  -0.014851   0.361931  -0.025603  -0.029323   7.947141
    19  H    0.000355   0.000753  -0.010149   0.001573  -0.001099   0.277163
    20  H    0.358609  -0.029917   0.008460  -0.000079  -0.000311  -0.000334
    21  H   -0.028024   0.411973  -0.025208   0.001446  -0.001964   0.001529
    22  H   -0.029469   0.415410  -0.030025   0.002861   0.002197  -0.002137
    23  H    0.346061  -0.019613  -0.002116   0.000036   0.000218   0.001793
    24  H   -0.000166   0.002911  -0.008599   0.297968   0.000798   0.000836
              19         20         21         22         23         24
     1  N    0.000803  -0.000009  -0.000008   0.000005  -0.000002  -0.000002
     2  C   -0.000810   0.000002  -0.000001  -0.000004  -0.000033   0.000001
     3  P   -0.005561  -0.000144  -0.000008   0.000011   0.000119  -0.000005
     4  O    0.000536  -0.000129  -0.000005  -0.000002   0.000209  -0.000000
     5  O    0.056383   0.000722  -0.000011  -0.000339   0.006267   0.000024
     6  O   -0.000137  -0.000002   0.000000  -0.000001  -0.000213   0.000000
     7  Sr  -0.003516  -0.001760  -0.001051   0.002006  -0.000561   0.000861
     8  H   -0.000028  -0.000001   0.000000  -0.000000   0.000015  -0.000000
     9  H   -0.000047  -0.000000   0.000000  -0.000000  -0.000001  -0.000000
    10  H    0.000097  -0.000000   0.000000   0.000000  -0.000003  -0.000000
    11  H    0.000072  -0.000000   0.000000   0.000000  -0.000002  -0.000000
    12  H    0.000056   0.000001  -0.000001   0.000001  -0.000013  -0.000006
    13  N    0.000355   0.358609  -0.028024  -0.029469   0.346061  -0.000166
    14  C    0.000753  -0.029917   0.411973   0.415410  -0.019613   0.002911
    15  P   -0.010149   0.008460  -0.025208  -0.030025  -0.002116  -0.008599
    16  O    0.001573  -0.000079   0.001446   0.002861   0.000036   0.297968
    17  O   -0.001099  -0.000311  -0.001964   0.002197   0.000218   0.000798
    18  O    0.277163  -0.000334   0.001529  -0.002137   0.001793   0.000836
    19  H    0.273045  -0.000050  -0.000066   0.000287  -0.000751   0.000016
    20  H   -0.000050   0.431727  -0.007821  -0.005235  -0.018360   0.000013
    21  H   -0.000066  -0.007821   0.498651  -0.019420   0.004141  -0.000261
    22  H    0.000287  -0.005235  -0.019420   0.505525  -0.007337  -0.000268
    23  H   -0.000751  -0.018360   0.004141  -0.007337   0.407364  -0.000008
    24  H    0.000016   0.000013  -0.000261  -0.000268  -0.000008   0.325228
          Atomic-Atomic Spin Densities.
               1          2          3          4          5          6
     1  N    0.000000   0.000000   0.000000   0.000000   0.000000   0.000000
     2  C    0.000000   0.000000   0.000000   0.000000   0.000000   0.000000
     3  P    0.000000   0.000000   0.000000   0.000000   0.000000   0.000000
     4  O    0.000000   0.000000   0.000000   0.000000   0.000000   0.000000
     5  O    0.000000   0.000000   0.000000   0.000000   0.000000   0.000000
     6  O    0.000000   0.000000   0.000000   0.000000   0.000000   0.000000
     7  Sr   0.000000   0.000000   0.000000   0.000000   0.000000   0.000000
     8  H    0.000000   0.000000   0.000000   0.000000   0.000000   0.000000
     9  H    0.000000   0.000000   0.000000   0.000000   0.000000   0.000000
    10  H    0.000000   0.000000   0.000000   0.000000   0.000000   0.000000
    11  H    0.000000   0.000000   0.000000   0.000000   0.000000   0.000000
    12  H    0.000000   0.000000   0.000000   0.000000   0.000000   0.000000
    13  N    0.000000   0.000000   0.000000   0.000000   0.000000   0.000000
    14  C    0.000000   0.000000   0.000000   0.000000   0.000000   0.000000
    15  P    0.000000   0.000000   0.000000   0.000000   0.000000   0.000000
    16  O    0.000000   0.000000   0.000000   0.000000   0.000000   0.000000
    17  O    0.000000   0.000000   0.000000   0.000000   0.000000   0.000000
    18  O    0.000000   0.000000   0.000000   0.000000   0.000000   0.000000
    19  H    0.000000   0.000000   0.000000   0.000000   0.000000   0.000000
    20  H    0.000000   0.000000   0.000000   0.000000   0.000000   0.000000
    21  H    0.000000   0.000000   0.000000   0.000000   0.000000   0.000000
    22  H    0.000000   0.000000   0.000000   0.000000   0.000000   0.000000
    23  H    0.000000   0.000000   0.000000   0.000000   0.000000   0.000000
    24  H    0.000000   0.000000   0.000000   0.000000   0.000000   0.000000
               7          8          9         10         11         12
     1  N    0.000000   0.000000   0.000000   0.000000   0.000000   0.000000
     2  C    0.000000   0.000000   0.000000   0.000000   0.000000   0.000000
     3  P    0.000000   0.000000   0.000000   0.000000   0.000000   0.000000
     4  O    0.000000   0.000000   0.000000   0.000000   0.000000   0.000000
     5  O    0.000000   0.000000   0.000000   0.000000   0.000000   0.000000
     6  O    0.000000   0.000000   0.000000   0.000000   0.000000   0.000000
     7  Sr   0.000000   0.000000   0.000000   0.000000   0.000000   0.000000
     8  H    0.000000   0.000000   0.000000   0.000000   0.000000   0.000000
     9  H    0.000000   0.000000   0.000000   0.000000   0.000000   0.000000
    10  H    0.000000   0.000000   0.000000   0.000000   0.000000   0.000000
    11  H    0.000000   0.000000   0.000000   0.000000   0.000000   0.000000
    12  H    0.000000   0.000000   0.000000   0.000000   0.000000   0.000000
    13  N    0.000000   0.000000   0.000000   0.000000   0.000000   0.000000
    14  C    0.000000   0.000000   0.000000   0.000000   0.000000   0.000000
    15  P    0.000000   0.000000   0.000000   0.000000   0.000000   0.000000
    16  O    0.000000   0.000000   0.000000   0.000000   0.000000   0.000000
    17  O    0.000000   0.000000   0.000000   0.000000   0.000000   0.000000
    18  O    0.000000   0.000000   0.000000   0.000000   0.000000   0.000000
    19  H    0.000000   0.000000   0.000000   0.000000   0.000000   0.000000
    20  H    0.000000   0.000000   0.000000   0.000000   0.000000   0.000000
    21  H    0.000000   0.000000   0.000000   0.000000   0.000000   0.000000
    22  H    0.000000   0.000000   0.000000   0.000000   0.000000   0.000000
    23  H    0.000000   0.000000   0.000000   0.000000   0.000000   0.000000
    24  H    0.000000   0.000000   0.000000   0.000000   0.000000   0.000000
              13         14         15         16         17         18
     1  N    0.000000   0.000000   0.000000   0.000000   0.000000   0.000000
     2  C    0.000000   0.000000   0.000000   0.000000   0.000000   0.000000
     3  P    0.000000   0.000000   0.000000   0.000000   0.000000   0.000000
     4  O    0.000000   0.000000   0.000000   0.000000   0.000000   0.000000
     5  O    0.000000   0.000000   0.000000   0.000000   0.000000   0.000000
     6  O    0.000000   0.000000   0.000000   0.000000   0.000000   0.000000
     7  Sr   0.000000   0.000000   0.000000   0.000000   0.000000   0.000000
     8  H    0.000000   0.000000   0.000000   0.000000   0.000000   0.000000
     9  H    0.000000   0.000000   0.000000   0.000000   0.000000   0.000000
    10  H    0.000000   0.000000   0.000000   0.000000   0.000000   0.000000
    11  H    0.000000   0.000000   0.000000   0.000000   0.000000   0.000000
    12  H    0.000000   0.000000   0.000000   0.000000   0.000000   0.000000
    13  N    0.000000   0.000000   0.000000   0.000000   0.000000   0.000000
    14  C    0.000000   0.000000   0.000000   0.000000   0.000000   0.000000
    15  P    0.000000   0.000000   0.000000   0.000000   0.000000   0.000000
    16  O    0.000000   0.000000   0.000000   0.000000   0.000000   0.000000
    17  O    0.000000   0.000000   0.000000   0.000000   0.000000   0.000000
    18  O    0.000000   0.000000   0.000000   0.000000   0.000000   0.000000
    19  H    0.000000   0.000000   0.000000   0.000000   0.000000   0.000000
    20  H    0.000000   0.000000   0.000000   0.000000   0.000000   0.000000
    21  H    0.000000   0.000000   0.000000   0.000000   0.000000   0.000000
    22  H    0.000000   0.000000   0.000000   0.000000   0.000000   0.000000
    23  H    0.000000   0.000000   0.000000   0.000000   0.000000   0.000000
    24  H    0.000000   0.000000   0.000000   0.000000   0.000000   0.000000
              19         20         21         22         23         24
     1  N    0.000000   0.000000   0.000000   0.000000   0.000000   0.000000
     2  C    0.000000   0.000000   0.000000   0.000000   0.000000   0.000000
     3  P    0.000000   0.000000   0.000000   0.000000   0.000000   0.000000
     4  O    0.000000   0.000000   0.000000   0.000000   0.000000   0.000000
     5  O    0.000000   0.000000   0.000000   0.000000   0.000000   0.000000
     6  O    0.000000   0.000000   0.000000   0.000000   0.000000   0.000000
     7  Sr   0.000000   0.000000   0.000000   0.000000   0.000000   0.000000
     8  H    0.000000   0.000000   0.000000   0.000000   0.000000   0.000000
     9  H    0.000000   0.000000   0.000000   0.000000   0.000000   0.000000
    10  H    0.000000   0.000000   0.000000   0.000000   0.000000   0.000000
    11  H    0.000000   0.000000   0.000000   0.000000   0.000000   0.000000
    12  H    0.000000   0.000000   0.000000   0.000000   0.000000   0.000000
    13  N    0.000000   0.000000   0.000000   0.000000   0.000000   0.000000
    14  C    0.000000   0.000000   0.000000   0.000000   0.000000   0.000000
    15  P    0.000000   0.000000   0.000000   0.000000   0.000000   0.000000
    16  O    0.000000   0.000000   0.000000   0.000000   0.000000   0.000000
    17  O    0.000000   0.000000   0.000000   0.000000   0.000000   0.000000
    18  O    0.000000   0.000000   0.000000   0.000000   0.000000   0.000000
    19  H    0.000000   0.000000   0.000000   0.000000   0.000000   0.000000
    20  H    0.000000   0.000000   0.000000   0.000000   0.000000   0.000000
    21  H    0.000000   0.000000   0.000000   0.000000   0.000000   0.000000
    22  H    0.000000   0.000000   0.000000   0.000000   0.000000   0.000000
    23  H    0.000000   0.000000   0.000000   0.000000   0.000000   0.000000
    24  H    0.000000   0.000000   0.000000   0.000000   0.000000   0.000000
 Mulliken charges and spin densities:
               1          2
     1  N   -0.594957   0.000000
     2  C   -0.135749   0.000000
     3  P    0.818801   0.000000
     4  O   -0.642436   0.000000
     5  O   -0.697847   0.000000
     6  O   -0.496517   0.000000
     7  Sr   1.374564   0.000000
     8  H    0.373495   0.000000
     9  H    0.262000   0.000000
    10  H    0.147412   0.000000
    11  H    0.155443   0.000000
    12  H    0.266007   0.000000
    13  N   -0.624395   0.000000
    14  C   -0.151642   0.000000
    15  P    0.864943   0.000000
    16  O   -0.482952   0.000000
    17  O   -0.637098   0.000000
    18  O   -0.470254   0.000000
    19  H    0.411073   0.000000
    20  H    0.264618   0.000000
    21  H    0.166108   0.000000
    22  H    0.165935   0.000000
    23  H    0.282788   0.000000
    24  H    0.380659   0.000000
 Sum of Mulliken charges =   1.00000   0.00000
 Mulliken charges and spin densities with hydrogens summed into heavy atoms:
               1          2
     1  N   -0.066950   0.000000
     2  C    0.167106   0.000000
     3  P    0.818801   0.000000
     4  O   -0.642436   0.000000
     5  O   -0.697847   0.000000
     6  O   -0.123022   0.000000
     7  Sr   1.374564   0.000000
    13  N   -0.076989   0.000000
    14  C    0.180400   0.000000
    15  P    0.864943   0.000000
    16  O   -0.102293   0.000000
    17  O   -0.637098   0.000000
    18  O   -0.059181   0.000000
 Electronic spatial extent (au):  <R**2>=           3441.0690
 Charge=              1.0000 electrons
 Dipole moment (field-independent basis, Debye):
    X=             -0.6716    Y=              4.4019    Z=              0.9408  Tot=              4.5511
 Quadrupole moment (field-independent basis, Debye-Ang):
   XX=            -72.5886   YY=            -80.5951   ZZ=            -77.4395
   XY=              0.8665   XZ=              7.8440   YZ=             -4.4437
 Traceless Quadrupole moment (field-independent basis, Debye-Ang):
   XX=              4.2858   YY=             -3.7207   ZZ=             -0.5651
   XY=              0.8665   XZ=              7.8440   YZ=             -4.4437
 Octapole moment (field-independent basis, Debye-Ang**2):
  XXX=              8.7232  YYY=             93.0388  ZZZ=              2.3918  XYY=            -13.5304
  XXY=            -29.7846  XXZ=             -1.3021  XZZ=             12.2585  YZZ=             12.5879
  YYZ=             17.7941  XYZ=             25.3635
 Hexadecapole moment (field-independent basis, Debye-Ang**3):
 XXXX=          -2381.7673 YYYY=           -667.4103 ZZZZ=           -596.5507 XXXY=             48.5785
 XXXZ=           -109.7071 YYYX=             60.5472 YYYZ=             -3.2975 ZZZX=             14.3114
 ZZZY=             -3.4428 XXYY=           -536.6920 XXZZ=           -424.7751 YYZZ=           -220.7964
 XXYZ=            -33.5766 YYXZ=            -11.8663 ZZXY=              4.1694
 N-N= 1.268142649428D+03 E-N=-5.721402134798D+03  KE= 1.332198732111D+03
                          Isotropic Fermi Contact Couplings
        Atom                 a.u.       MegaHertz       Gauss      10(-4) cm-1
     1  N(14)              0.00000       0.00000       0.00000       0.00000
     2  C(13)              0.00000       0.00000       0.00000       0.00000
     3  P(31)              0.00000       0.00000       0.00000       0.00000
     4  O(17)              0.00000      -0.00000      -0.00000      -0.00000
     5  O(17)              0.00000      -0.00000      -0.00000      -0.00000
     6  O(17)              0.00000      -0.00000      -0.00000      -0.00000
     7  Sr(87)             0.00000      -0.00000      -0.00000      -0.00000
     8  H(1)               0.00000       0.00000       0.00000       0.00000
     9  H(1)               0.00000       0.00000       0.00000       0.00000
    10  H(1)               0.00000       0.00000       0.00000       0.00000
    11  H(1)               0.00000       0.00000       0.00000       0.00000
    12  H(1)               0.00000       0.00000       0.00000       0.00000
    13  N(14)              0.00000       0.00000       0.00000       0.00000
    14  C(13)              0.00000       0.00000       0.00000       0.00000
    15  P(31)              0.00000       0.00000       0.00000       0.00000
    16  O(17)              0.00000      -0.00000      -0.00000      -0.00000
    17  O(17)              0.00000      -0.00000      -0.00000      -0.00000
    18  O(17)              0.00000      -0.00000      -0.00000      -0.00000
    19  H(1)               0.00000       0.00000       0.00000       0.00000
    20  H(1)               0.00000       0.00000       0.00000       0.00000
    21  H(1)               0.00000       0.00000       0.00000       0.00000
    22  H(1)               0.00000       0.00000       0.00000       0.00000
    23  H(1)               0.00000       0.00000       0.00000       0.00000
    24  H(1)               0.00000       0.00000       0.00000       0.00000
 --------------------------------------------------------
       Center         ----  Spin Dipole Couplings  ----
                      3XX-RR        3YY-RR        3ZZ-RR
 --------------------------------------------------------
     1   Atom        0.000000      0.000000      0.000000
     2   Atom        0.000000      0.000000      0.000000
     3   Atom        0.000000      0.000000      0.000000
     4   Atom        0.000000      0.000000      0.000000
     5   Atom        0.000000      0.000000      0.000000
     6   Atom        0.000000      0.000000      0.000000
     7   Atom        0.000000      0.000000      0.000000
     8   Atom        0.000000      0.000000      0.000000
     9   Atom        0.000000      0.000000      0.000000
    10   Atom        0.000000      0.000000      0.000000
    11   Atom        0.000000      0.000000      0.000000
    12   Atom        0.000000      0.000000      0.000000
    13   Atom        0.000000      0.000000      0.000000
    14   Atom        0.000000      0.000000      0.000000
    15   Atom        0.000000      0.000000      0.000000
    16   Atom        0.000000      0.000000      0.000000
    17   Atom        0.000000      0.000000      0.000000
    18   Atom        0.000000      0.000000      0.000000
    19   Atom        0.000000      0.000000      0.000000
[...]
 ,-0.00566911,0.00046195,0.00188299,-0.00131371,-0.00112134,0.00038674,
 0.00373903,-0.00116336,-0.00259417,0.00020413,0.00021716,-0.00023837,-
 0.00007235,-0.00015121,0.00002931,-0.00006728,0.00007893,-0.00007976,0
 .00002443,-0.00005801,0.00000474,0.00050972,-0.00005531,0.00060836,0.0
 0167685,-0.00029149,0.00315981,-0.00450238,0.00186141,-0.00108221,-0.2
 8268864,-0.00301493,0.10463419,0.35094150,0.00049827,0.00039808,0.0001
 1679,-0.00028735,-0.00016916,0.00015838,0.00126396,-0.00122377,-0.0004
 3923,0.00012553,0.00134864,0.00052167,-0.00289997,0.00214361,0.0017939
 4,-0.00012010,0.00034243,0.00003283,-0.00282115,-0.00133526,0.00161624
 ,-0.00001110,-0.00006257,-0.00000951,-0.00002660,0.00000737,-0.0000394
 6,0.00000847,0.00009013,-0.00006449,0.00008848,0.00006164,0.00003382,-
 0.00023730,-0.00029149,-0.00022018,0.00011467,0.00133929,-0.00116268,0
 .00234065,0.00417852,0.00000706,0.01221010,-0.05259521,-0.01332252,-0.
 00554806,0.11945446,0.00042803,0.00000802,0.00046244,0.00016306,-0.000
 08152,0.00008656,-0.00182296,-0.00055298,-0.00077808,0.00089329,0.0004
 6497,0.00047710,0.00095827,0.00061153,0.00108851,0.00048406,0.00042814
 ,0.00006114,-0.00302456,0.00140668,-0.00076097,-0.00014327,-0.00009936
 ,0.00002411,0.00005257,0.00006059,-0.00002335,0.00000890,-0.00003467,0
 .00003508,0.00003634,0.00002526,0.00002852,-0.00009983,-0.00003515,-0.
 00035242,-0.00025876,-0.00074350,-0.00986396,0.02585822,-0.00041377,-0
 .00578158,0.13330513,-0.00551227,-0.14251930,-0.17655724,0.19230293,0.
 58395615,-0.00323644,-0.00082377,-0.00122441,0.00033229,0.00105415,-0.
 00060057,0.00297607,0.00425978,0.00049813,-0.00307857,-0.00435342,0.00
 011103,-0.00163117,-0.00649798,0.00079933,-0.00154373,-0.00254101,0.00
 062992,-0.02331606,0.00888227,0.01529166,0.00020048,0.00044218,-0.0004
 1185,-0.00042240,-0.00042463,0.00015077,-0.00015975,-0.00024938,0.0001
 1574,-0.00021542,-0.00027393,-0.00005535,0.00147196,0.00080846,0.00219
 275,0.00537089,-0.00305022,-0.00116116,-0.00426421,0.01747849,0.003194
 05,-0.19682111,0.20344537,-0.02865271,-0.01834393,0.02327714,0.0084566
 1,0.23181200,0.00210199,0.00183774,0.00025532,-0.00107517,-0.00045463,
 0.00076672,0.00576688,-0.00567374,-0.00278408,0.00153117,0.00576673,0.
 00158961,-0.00934584,0.00369836,0.00324669,-0.00068295,0.00137994,0.00
 034563,-0.00022932,-0.01210477,-0.00114464,-0.00010819,-0.00029390,-0.
 00000637,-0.00025706,-0.00005534,-0.00018819,0.00001091,0.00033783,-0.
 00027760,0.00033645,0.00023717,0.00012488,-0.00078079,-0.00125437,-0.0
 0065743,-0.00246656,0.00360241,0.00038510,0.01187264,-0.00776115,-0.00
 413566,0.20977390,-0.40021251,0.04294247,0.00841788,0.00066694,-0.0027
 5566,-0.24371549,0.44415276,-0.00039533,-0.00038508,0.00121157,0.00002
 269,0.00058625,0.00010522,-0.00039258,-0.00208316,-0.00392339,0.002242
 33,0.00353420,0.00181787,-0.00027787,0.00187764,0.00336747,0.00023285,
 0.00066760,0.00065177,0.01590195,-0.00640580,-0.02213393,-0.00016236,-
 0.00023075,-0.00001053,-0.00008122,-0.00000047,0.00011291,-0.00016181,
 -0.00016772,0.00004701,0.00009024,-0.00008355,0.00014106,0.00152161,0.
 00039786,0.00055438,-0.00093465,0.00193578,-0.00076535,-0.01054483,0.0
 1970375,0.00037607,-0.03046455,0.04978656,-0.08334051,0.01363856,-0.01
 150689,0.01184002,0.00851897,-0.04211287,0.08279481,0.00032520,0.00122
 779,-0.00014800,-0.00171725,0.00004171,0.00048143,0.01719640,-0.002405
 46,-0.00176155,-0.00363480,0.00563109,0.00433754,-0.03920800,0.0115343
 3,0.02039989,-0.00351670,-0.00171316,0.00123742,-0.00643390,-0.0047825
 2,-0.00132128,0.00015367,0.00026043,-0.00065296,-0.00014682,-0.0001576
 5,-0.00011901,-0.00012737,0.00047104,-0.00046697,0.00029037,0.00013416
 ,0.00008337,0.00019421,-0.00092659,0.00034901,0.00294278,-0.00086379,-
 0.00337396,-0.00268629,-0.01176390,-0.00074040,-0.13766228,-0.10689605
 ,-0.04403138,-0.03507019,-0.03451374,-0.00538586,0.01681124,0.00543072
 ,0.00024280,0.53833557,0.00104579,0.00097393,0.00027908,-0.00087541,-0
 .00040461,0.00033194,0.00490959,-0.00256069,-0.00196601,-0.00020849,0.
 00341133,0.00191446,-0.00618578,0.00892510,0.00425618,-0.00040389,0.00
 076703,0.00018220,-0.00889789,-0.00280118,0.00386207,0.00008468,-0.000
 08339,-0.00008475,-0.00005832,-0.00001816,-0.00011113,0.00000689,0.000
 26832,-0.00018658,0.00025971,0.00013577,0.00012022,-0.00066556,-0.0006
 3330,-0.00044755,0.00120331,0.00097438,-0.00109378,-0.00455979,-0.0025
 2115,0.00317673,-0.10070219,-0.24833394,-0.09211757,-0.01126685,-0.001
 59977,-0.00076157,-0.00371340,-0.03502980,-0.01729250,0.14410057,0.308
 05078,0.00018096,0.00002599,0.00050519,0.00070110,-0.00003432,-0.00015
 561,-0.00228373,-0.00044976,-0.00086425,0.00090294,-0.00013281,0.00017
 012,0.01233815,-0.00168417,0.00101639,0.00070902,0.00044678,0.00002692
 ,-0.00182558,0.00138357,-0.00146237,-0.00004674,-0.00005634,0.00004521
 ,-0.00002617,-0.00004213,0.00004895,0.00001222,-0.00010735,0.00022583,
 0.00015903,-0.00002063,0.00010103,0.00059833,-0.00064297,-0.00026090,0
 .00149812,-0.00021547,0.00163241,-0.01747977,-0.02130307,0.00006020,-0
 .04281090,-0.09151729,-0.10860281,0.01035748,0.00849741,0.01045050,-0.
 00006534,-0.00050561,0.01428711,-0.05732336,0.11060202,0.13676314,-0.0
 0046861,-0.00147106,0.00039759,0.00196430,0.00012295,-0.00059376,-0.02
 445446,0.00288326,0.00250817,0.00513880,-0.00680611,-0.00518658,0.0141
 4648,-0.00852962,-0.00847578,0.00400560,0.00207063,-0.00131485,0.00883
 985,0.00540829,-0.00049598,-0.00021072,-0.00038492,0.00068805,0.000170
 85,0.00011757,0.00016544,0.00012187,-0.00063614,0.00057233,-0.00031214
 ,-0.00020101,-0.00015160,0.00056298,0.00072349,-0.00051145,-0.00243545
 ,0.00050041,0.00020240,0.00395670,0.00323095,-0.00053536,-0.02342065,-
 0.03645862,-0.01246990,0.00771182,0.00489528,0.00088133,-0.00571982,0.
 01257099,0.00397959,-0.35103051,-0.01399867,0.09705234,0.36254843,-0.0
 0033644,0.00013622,-0.00024264,-0.00003302,0.00040711,0.00011266,0.002
 20186,-0.00035889,0.00055086,-0.00053005,0.00054461,0.00015199,-0.0016
 3058,-0.00643080,0.00012216,-0.00155976,-0.00133256,0.00046405,0.00111
 455,-0.00195863,-0.00216787,-0.00010405,0.00005188,-0.00020932,-0.0001
 3664,-0.00006282,0.00004102,-0.00008228,0.00002706,-0.00008850,-0.0000
 2665,-0.00001789,-0.00003037,0.00052638,-0.00032184,0.00062083,0.00043
 836,-0.00019639,0.00008875,0.00017379,-0.00040016,-0.00017711,-0.03215
 021,-0.00673319,0.00399364,-0.00418764,-0.00228499,-0.00169714,0.00428
 563,0.00164880,-0.00003213,-0.00520951,-0.02824890,-0.00470737,0.03695
 956,0.04530703,0.00003128,0.00042609,-0.00038084,-0.00177264,0.0001221
 6,0.00041168,0.00839521,-0.00024115,-0.00060511,-0.00222347,0.00250189
 ,0.00211763,-0.00686475,0.00253584,-0.00474449,-0.00216548,-0.00097682
 ,0.00054420,-0.00219040,-0.00342805,0.00074233,0.00005384,0.00010608,-
 0.00029698,0.00002524,-0.00000690,-0.00019895,-0.00008544,0.00031744,-
 0.00053295,-0.00012970,0.00010076,-0.00013268,-0.00052174,0.00050444,0
 .00009880,0.00080962,-0.00002631,-0.00049003,-0.00119065,-0.00167827,-
 0.00064434,-0.00981144,0.00678495,0.00773066,-0.00260937,-0.00372505,0
 .00125554,0.00170003,-0.00347870,-0.00291773,0.09826553,-0.00339018,-0
 .04964825,-0.08015886,0.00352756,0.05081388,-0.00000694,0.00001702,-0.
 00000767,-0.00021848,0.00012901,0.00013586,0.00155241,-0.00054065,-0.0
 0113897,-0.00009997,0.00028218,0.00079937,-0.00220054,-0.00026510,-0.0
 0102536,-0.00021737,-0.00008976,0.00024415,0.00020463,-0.00082109,-0.0
 0173189,-0.00004825,-0.00001137,-0.00009408,0.00000020,-0.00000313,-0.
 00000335,-0.00002805,0.00005980,-0.00007495,0.00001599,-0.00002277,0.0
 0004449,-0.00000558,-0.00001750,0.00002506,-0.07551595,-0.02110693,-0.
 10465524,0.00257951,0.00282065,0.03712379,-0.00552897,0.00154256,-0.00
 064133,-0.00066262,0.00008235,0.00246979,0.00104596,-0.00034033,-0.000
 33970,0.00112465,0.00043281,0.00015029,-0.00037483,0.00011073,0.000466
 27,0.08195525,0.00002533,0.00004644,0.00001558,-0.00007976,-0.00004029
 ,0.00001918,-0.00004100,0.00025292,0.00001279,0.00000998,-0.00013616,-
 0.00024536,-0.00018302,0.00019260,-0.00041172,0.00002391,-0.00011551,0
 .00001196,0.00006616,0.00071556,0.00286038,-0.00002476,0.00004265,-0.0
 0001902,-0.00000362,0.00000125,-0.00001237,0.00000065,0.00000851,-0.00
 001413,0.00000102,0.00001185,-0.00001518,-0.00003653,-0.00000085,-0.00
 002749,-0.00967825,-0.02876093,0.01491310,0.00221746,-0.00193541,-0.00
 602286,0.00049294,-0.00103397,-0.00047038,-0.00038227,0.00025595,0.000
 61840,0.00006365,-0.00056146,0.00081426,0.00038869,0.00034302,0.000212
 36,-0.00024576,-0.00005694,0.00022782,0.01550319,0.03314754,0.00006766
 ,0.00001797,0.00007993,-0.00000010,-0.00001035,0.00003275,-0.00028167,
 -0.00015448,-0.00018626,0.00023683,0.00010350,0.00001671,0.00007671,0.
 00001780,0.00021478,0.00010803,0.00009605,-0.00001307,-0.00067207,0.00
 009738,-0.00095601,-0.00003554,-0.00002110,0.00003114,0.00000002,0.000
 01665,0.00000455,0.00000278,-0.00000197,-0.00000174,0.00000574,0.00000
 519,0.00000581,-0.00000268,0.00000330,-0.00002002,-0.08815626,-0.02513
 262,-0.39802386,-0.00346598,0.00169648,-0.01886517,0.00295006,-0.00034
 648,0.00060124,0.00014390,-0.00025005,-0.00093342,-0.00025811,0.000016
 93,0.00032970,-0.00027865,-0.00011154,0.00032297,-0.00001449,0.0000054
 6,-0.00012490,0.09195635,0.01985954,0.41950869,0.00004904,0.00004251,-
 0.00001212,-0.00005428,-0.00001878,0.00001574,0.00028272,-0.00009753,0
 .00010542,-0.00003253,0.00013082,-0.00008422,-0.00015383,0.00010310,-0
 .00038311,-0.00003130,0.00002123,-0.00002781,-0.00073361,-0.00064679,0
 .00033538,0.00001758,-0.00000020,0.00000727,-0.00000168,-0.00000010,-0
 .00000829,0.00000171,0.00001428,-0.00001202,0.00000600,0.00000946,-0.0
 0000355,-0.00004153,-0.00001953,-0.00002130,-0.02316552,-0.01795685,-0
 .00477838,-0.16066164,-0.12325584,-0.04275621,-0.00541999,-0.00489112,
 -0.00454994,-0.00049876,0.00054974,0.00114585,0.00126564,0.00076413,0.
 00053515,0.00063382,0.00021870,-0.00005032,-0.00017309,0.00001169,0.00
 017507,0.00126907,-0.00035376,-0.00066687,0.18132028,-0.00000475,-0.00
 000531,-0.00001014,0.00000019,-0.00000213,-0.00000302,0.00000951,0.000
 01417,0.00000797,-0.00001520,-0.00002827,-0.00000049,-0.00000847,0.000
 01033,0.00001038,-0.00000682,-0.00000400,-0.00000226,0.00010374,0.0001
 7448,0.00017649,0.00000572,0.00000188,-0.00000283,0.00000269,0.0000002
 2,0.00000148,0.00000012,0.00000035,0.00000002,-0.00000096,-0.00000127,
 -0.00000052,-0.00000251,-0.00000046,-0.00000209,0.00453169,0.00555878,
 0.00234377,-0.12464355,-0.17738733,-0.04825546,0.00201697,0.00026633,0
 .00036096,0.00034770,-0.00015203,-0.00039657,-0.00026087,-0.00061081,0
 .00006623,0.00028265,0.00143799,0.00104764,-0.00004905,-0.00008009,-0.
 00001725,-0.00057584,0.00049219,0.00038111,0.13468467,0.18686912,0.000
 04996,0.00005124,0.00003230,-0.00002810,-0.00000622,0.00002040,0.00019
 745,-0.00017044,-0.00024900,0.00003516,0.00016659,0.00018868,-0.000487
 87,0.00027803,0.00065827,-0.00004480,0.00000950,0.00005545,-0.00042346
 ,-0.00002775,-0.00016519,-0.00001768,-0.00000561,-0.00001516,-0.000005
 80,-0.00000292,-0.00000158,-0.00000286,0.00001098,-0.00000769,0.000017
 64,0.00000379,0.00001171,0.00000678,-0.00005853,-0.00001656,0.01987056
 ,0.01514268,0.00406624,-0.05590467,-0.05620720,-0.06354436,-0.01784032
 ,-0.02166125,-0.00261103,0.00139116,0.00172219,0.00168229,0.00245780,0
 .00266595,0.00075610,-0.00287385,-0.00113170,-0.00724526,0.00162819,-0
 .00000037,-0.00048909,-0.00042230,0.00093719,0.00129243,0.04438686,0.0
 5381494,0.06624129,-0.00006248,-0.00006051,-0.00012940,0.00004416,-0.0
 0001062,-0.00005049,-0.00009539,0.00048015,0.00038516,-0.00019560,-0.0
 0032994,-0.00028779,0.00032474,-0.00046509,-0.00043136,-0.00000389,-0.
 00015631,-0.00002744,0.00007988,-0.00012257,0.00113658,0.00000864,0.00
 004052,-0.00000074,0.00000378,-0.00000947,0.00000407,0.00000744,-0.000
 00602,0.00001219,-0.00001762,-0.00000347,-0.00001762,-0.00004080,0.000
 01499,-0.00000320,-0.02049591,0.02450699,0.00324371,-0.08685145,0.0939
 8285,-0.01530054,-0.00359446,0.00652996,-0.00415786,-0.00016840,-0.000
 60078,0.00015765,0.00073390,0.00029547,-0.00066455,0.00084494,-0.00085
 279,0.00094749,-0.00073210,0.00019040,0.00014836,0.00044007,-0.0004459
 7,-0.00091868,0.00915291,-0.01830349,0.00432586,0.09930417,0.00003234,
 0.00000552,0.00003541,0.00000442,-0.00000539,0.00000749,-0.00011690,-0
 .00006694,-0.00009074,0.00008208,0.00006223,0.00005429,0.00000102,0.00
 007369,0.00016638,0.00003495,0.00003390,0.00000995,-0.00045225,0.00017
 554,-0.00022142,-0.00001811,-0.00000859,0.00000216,0.00000066,0.000005
 43,-0.00000098,0.00000047,-0.00000066,0.00000056,0.00000354,0.00000207
 ,0.00000495,-0.00000597,-0.00000951,-0.00002099,0.00313522,0.00308900,
 -0.00187168,0.09424908,-0.26023722,0.03679406,0.00115291,-0.00484517,-
 0.00075476,-0.00067433,0.00053522,0.00024348,-0.00012303,0.00146937,0.
 00015704,-0.00049764,0.00035545,-0.00007241,0.00027520,-0.00000344,-0.
 00014603,0.00033666,-0.00006893,-0.00032376,0.00859153,-0.01741928,0.0
 0539624,-0.10574645,0.27564888,-0.00009490,-0.00007352,0.00008233,0.00
 006145,0.00006431,-0.00000400,-0.00031113,0.00000355,-0.00021446,0.000
 12808,-0.00006321,0.00014886,0.00028075,-0.00016926,0.00026436,0.00004
 328,0.00000500,0.00003340,0.00066417,0.00044904,-0.00182589,-0.0000199
 1,-0.00001391,0.00000237,0.00000173,0.00000346,0.00001379,-0.00001099,
 -0.00002748,0.00001529,-0.00000849,-0.00001623,0.00000568,0.00013776,0
 .00008203,0.00009112,0.01608976,-0.01952216,0.00061389,-0.01962025,0.0
 4413566,-0.05353083,-0.00849630,0.02466040,0.00192250,0.00111590,-0.00
 196415,-0.00039001,-0.00540258,0.00375604,-0.00601102,0.00127148,-0.00
 241068,0.00107449,-0.00020520,0.00027002,0.00004298,0.00018975,-0.0011
 8154,0.00096250,0.00344483,-0.00887980,0.00173505,0.01216671,-0.038830
 20,0.05449723,-0.00009201,-0.00029560,0.00003296,0.00059806,-0.0000294
 9,-0.00011014,-0.00493695,0.00048296,-0.00082775,0.00098423,-0.0011274
 4,0.00047930,0.00087218,-0.00108148,0.00223672,0.00076359,0.00037035,0
 .00000132,0.00254978,0.00415842,-0.00042230,-0.00021761,-0.00010905,0.
 00008992,0.00002095,0.00002940,0.00003820,0.00002039,-0.00014071,0.000
 14854,-0.00005756,-0.00004999,0.00002473,0.00006365,0.00007567,-0.0000
 7607,-0.15800170,-0.15743153,-0.01724429,-0.02247184,-0.02399791,-0.00
 101916,0.00119001,-0.00105995,0.00223151,-0.00002262,0.00014686,-0.000
 59052,-0.00115001,0.00027483,-0.00065880,-0.00140259,-0.00008905,-0.00
 034394,0.00205565,-0.00038396,-0.00062246,-0.00510315,-0.00724362,-0.0
 0087903,-0.00314806,0.00170334,0.00386662,0.00119638,-0.00024645,-0.00
 174657,0.18620796,-0.00007778,-0.00000684,-0.00012444,-0.00004772,-0.0
 0000989,-0.00005057,0.00086945,0.00133024,0.00061007,-0.00088906,-0.00
 048693,-0.00066780,-0.00174788,-0.00237720,-0.00194798,-0.00021502,-0.
 00067596,0.00019449,0.00099808,-0.00511557,0.00241065,-0.00005314,0.00
 015821,-0.00008261,0.00000927,-0.00002069,-0.00000132,0.00000310,0.000
 02604,0.00000501,-0.00000162,0.00001151,-0.00003999,-0.00000381,0.0000
 0425,0.00004016,-0.20001713,-0.27263071,-0.04696026,0.01007164,0.00455
 771,0.00089669,-0.00087972,0.00101933,0.00128477,0.00020552,-0.0001734
 8,-0.00029536,0.00056875,0.00000854,-0.00017584,-0.00017438,-0.0010799
 8,0.00020944,-0.00047488,0.00055739,-0.00021610,0.00283072,-0.00280168
 ,0.00378397,0.00202249,0.00084577,-0.00077446,0.00100869,0.00122212,0.
 00001439,0.18597912,0.27555847,0.00002845,-0.00020626,0.00000630,0.000
 83734,-0.00026209,-0.00032523,-0.00537087,0.00082427,0.00259245,0.0006
 2351,-0.00077968,-0.00142284,0.00437134,-0.00117954,0.00064118,0.00086
 328,0.00057267,-0.00062756,0.00015947,0.00312524,0.00076590,0.00007413
 ,-0.00007571,0.00026067,0.00002737,0.00004339,0.00003911,0.00007923,-0
 .00018929,0.00025005,-0.00006481,0.00001304,-0.00006548,-0.00001405,0.
 00008576,-0.00012255,-0.01129984,-0.03016317,-0.06073481,0.01263205,0.
 01846510,0.00230724,0.00492708,0.00359826,0.00153355,-0.00060649,-0.00
 037880,-0.00054899,-0.00107141,-0.00045363,-0.00078090,-0.00177829,-0.
 00140218,0.00055445,0.00072783,-0.00013373,-0.00206163,-0.02364310,-0.
 03210821,-0.00422088,0.00334417,-0.00054071,-0.00265576,-0.00030456,-0
 .00073440,0.00051322,0.01534028,0.04188478,0.06421621,0.00007305,-0.00
 002994,0.00000522,0.00007831,-0.00006376,0.00000064,-0.00101941,0.0000
 1398,0.00030443,0.00029060,-0.00017069,-0.00027428,0.00139828,-0.00033
 002,-0.00068282,0.00028572,0.00020150,-0.00012927,-0.00030446,0.000350
 89,0.00046655,-0.00004146,-0.00003723,0.00005972,0.00000346,0.00003455
 ,-0.00000270,0.00001855,-0.00002142,0.00001574,-0.00003091,0.00000676,
 -0.00000918,-0.00012902,0.00005771,-0.00003749,0.00011673,0.00023750,0
 .00064658,-0.00211840,-0.00096993,-0.00008252,-0.01318451,0.01129710,0
 .03561306,-0.01754696,0.00146465,0.01258389,-0.00211782,-0.00014626,-0
 .00184850,0.00378385,0.00021603,-0.00335161,-0.00189094,0.00035783,0.0
 0027595,-0.00017708,-0.00007465,0.00008203,0.00011705,0.00018250,-0.00
 018236,0.00011711,-0.00001896,0.00032066,0.00008126,0.00001531,0.00011
 788,0.03219701,-0.00008045,-0.00011213,0.00000116,0.00004750,0.0000483
 0,-0.00002264,-0.00007612,0.00031677,0.00007827,-0.00005912,-0.0002201
 4,-0.00009543,0.00030437,-0.00030593,-0.00028416,-0.00001650,-0.000126
 63,0.00000574,0.00053126,0.00014815,-0.00003926,0.00000869,0.00002384,
 -0.00000064,0.00002605,0.00000848,0.00000623,-0.00000462,-0.00001446,0
 .00000688,-0.00001807,-0.00000958,-0.00001123,0.00005551,0.00007110,-0
 .00000142,0.00032242,0.00006955,0.00163642,-0.00382718,0.00098878,0.00
 106617,-0.00134769,0.00223858,0.00244039,0.01549597,-0.07093457,-0.182
 79050,0.00146126,-0.00079411,0.00094959,0.00040122,-0.00232823,-0.0009
 3352,-0.00050276,-0.00019260,0.00017580,-0.00035318,0.00000162,0.00025
 101,0.00007614,0.00001938,-0.00015288,0.00006344,-0.00001329,-0.000291
 74,0.00006529,0.00007938,-0.00000512,-0.01257345,0.07103775,-0.0001782
 3,0.00001875,-0.00016791,-0.00010113,0.00005633,-0.00002052,0.00114656
 ,0.00009244,0.00008409,-0.00043778,-0.00002294,0.00007842,-0.00141116,
 0.00016467,0.00038713,-0.00030163,-0.00021401,0.00004536,0.00095697,-0
 .00027467,-0.00044889,0.00004867,0.00004217,-0.00004094,-0.00002684,-0
 .00002295,0.00001869,-0.00001235,0.00002303,-0.00002416,-0.00000324,-0
 .00001395,0.00000144,0.00010033,-0.00001226,0.00019167,-0.00044794,0.0
 0014876,-0.00026465,0.00241148,-0.00058420,0.00105758,0.00600944,-0.00
 354078,-0.01602672,0.04660564,-0.17372026,-0.44949587,-0.00521330,0.00
 240510,0.00149027,-0.00641297,-0.00221719,0.00095456,0.00131056,-0.000
 46244,-0.00048974,0.00017276,0.00002569,-0.00005787,-0.00014159,-0.000
 09983,0.00026047,-0.00023356,0.00019537,-0.00004288,0.00005092,0.00000
 231,-0.00011370,-0.04389161,0.17801087,0.46262418\\-0.00000093,-0.0000
 2385,0.00000319,0.00000043,-0.00000558,0.00000522,0.00002764,0.0000152
 1,0.00000686,-0.00000168,-0.00001362,-0.00001836,-0.00000169,-0.000003
 52,0.00000920,-0.00004107,0.00001297,0.00000054,0.00002509,0.00004190,
 -0.00001599,0.00002110,0.00000324,0.00002653,-0.00000141,-0.00000417,-
 0.00000376,-0.00000526,-0.00000773,-0.00000291,-0.00000082,-0.00000848
 ,0.00000546,-0.00000947,-0.00000788,-0.00001201,-0.00003378,0.00004377
 ,0.00001581,0.00001734,0.00000587,-0.00002419,-0.00002663,-0.00003994,
 0.00000741,0.00001577,0.00000302,-0.00000821,-0.00000732,-0.00000653,-
 0.00000368,0.00001377,0.00000735,0.00001488,-0.00000713,-0.00000321,0.
 00000377,0.00002314,-0.00000897,-0.00000242,0.00000275,0.00000368,-0.0
 0000416,-0.00000074,0.00000438,0.00000343,0.00000263,0.00000231,0.0000
 0288,-0.00001174,-0.00001022,-0.00000949\\\@
 The archive entry for this job was punched.


 THE ONLY DIFFERENCE BETWEEN ECCENTRICS AND JOGGERS
 IS THAT JOGGERS WEAR SWEATBANDS WHEN THEY RUN IN THE RAIN.
 Job cpu time:       0 days 11 hours 38 minutes  6.6 seconds.
 Elapsed time:       0 days  0 hours 15 minutes 26.9 seconds.
 File lengths (MBytes):  RWF=    976 Int=      0 D2E=      0 Chk=     27 Scr=      1
 Normal termination of Gaussian 16 at Thu Sep  5 13:09:12 2024.
