 Entering Gaussian System, Link 0=g16
 Initial command:
 /apps/gaussian/g16c01/g16/l1.exe "/jobfs/124198198.gadi-pbs/Gau-2739692.inp" -scrdir="/jobfs/124198198.gadi-pbs/"
 Entering Link 1 = /apps/gaussian/g16c01/g16/l1.exe PID=   2739693.
  
 Copyright (c) 1988-2019, Gaussian, Inc.  All Rights Reserved.
  
 This is part of the Gaussian(R) 16 program.  It is based on
 the Gaussian(R) 09 system (copyright 2009, Gaussian, Inc.),
 the Gaussian(R) 03 system (copyright 2003, Gaussian, Inc.),
 the Gaussian(R) 98 system (copyright 1998, Gaussian, Inc.),
 the Gaussian(R) 94 system (copyright 1995, Gaussian, Inc.),
 the Gaussian 92(TM) system (copyright 1992, Gaussian, Inc.),
 the Gaussian 90(TM) system (copyright 1990, Gaussian, Inc.),
 the Gaussian 88(TM) system (copyright 1988, Gaussian, Inc.),
 the Gaussian 86(TM) system (copyright 1986, Carnegie Mellon
 University), and the Gaussian 82(TM) system (copyright 1983,
 Carnegie Mellon University). Gaussian is a federally registered
 trademark of Gaussian, Inc.
  
 This software contains proprietary and confidential information,
 including trade secrets, belonging to Gaussian, Inc.
  
 This software is provided under written license and may be
 used, copied, transmitted, or stored only in accord with that
 written license.
  
 The following legend is applicable only to US Government
 contracts under FAR:
  
                    RESTRICTED RIGHTS LEGEND
  
 Use, reproduction and disclosure by the US Government is
 subject to restrictions as set forth in subparagraphs (a)
 and (c) of the Commercial Computer Software - Restricted
 Rights clause in FAR 52.227-19.
  
 Gaussian, Inc.
 340 Quinnipiac St., Bldg. 40, Wallingford CT 06492
  
  
 ---------------------------------------------------------------
 Warning -- This program may not be used in any manner that
 competes with the business of Gaussian, Inc. or will provide
 assistance to any competitor of Gaussian, Inc.  The licensee
 of this program is prohibited from giving any competitor of
 Gaussian, Inc. access to this program.  By using this program,
 the user acknowledges that Gaussian, Inc. is engaged in the
 business of creating and licensing software in the field of
 computational chemistry and represents and warrants to the
 licensee that it is not a competitor of Gaussian, Inc. and that
 it will not use this program in any manner prohibited above.
 ---------------------------------------------------------------
  

 Cite this work as:
 Gaussian 16, Revision C.01,
 M. J. Frisch, G. W. Trucks, H. B. Schlegel, G. E. Scuseria, 
 M. A. Robb, J. R. Cheeseman, G. Scalmani, V. Barone, 
 G. A. Petersson, H. Nakatsuji, X. Li, M. Caricato, A. V. Marenich, 
 J. Bloino, B. G. Janesko, R. Gomperts, B. Mennucci, H. P. Hratchian, 
 J. V. Ortiz, A. F. Izmaylov, J. L. Sonnenberg, D. Williams-Young, 
 F. Ding, F. Lipparini, F. Egidi, J. Goings, B. Peng, A. Petrone, 
 T. Henderson, D. Ranasinghe, V. G. Zakrzewski, J. Gao, N. Rega, 
 G. Zheng, W. Liang, M. Hada, M. Ehara, K. Toyota, R. Fukuda, 
 J. Hasegawa, M. Ishida, T. Nakajima, Y. Honda, O. Kitao, H. Nakai, 
 T. Vreven, K. Throssell, J. A. Montgomery, Jr., J. E. Peralta, 
 F. Ogliaro, M. J. Bearpark, J. J. Heyd, E. N. Brothers, K. N. Kudin, 
 V. N. Staroverov, T. A. Keith, R. Kobayashi, J. Normand, 
 K. Raghavachari, A. P. Rendell, J. C. Burant, S. S. Iyengar, 
 J. Tomasi, M. Cossi, J. M. Millam, M. Klene, C. Adamo, R. Cammi, 
 J. W. Ochterski, R. L. Martin, K. Morokuma, O. Farkas, 
 J. B. Foresman, and D. J. Fox, Gaussian, Inc., Wallingford CT, 2019.
 
 ******************************************
 Gaussian 16:  ES64L-G16RevC.01  3-Jul-2019
                 5-Sep-2024 
 ******************************************
 %mem=60gb
 %nprocs=48
 Will use up to   48 processors via shared memory.
 %RWF=/scratch/gy60/or4187/rwf/AMPA.a.Zn.CONF1.B3LYP.rwf
 %NoSave
 %Chk=AMPA.a.Zn.CONF1.B3LYP.chk
 ----------------------------------------------------------------------
 #UM06/Def2TZVP OPT Freq=Noraman INT(grid=ultrafine) EmpiricalDispersio
 n=GD3 SCF=XQC Pop=NPA
 ----------------------------------------------------------------------
 1/18=20,19=15,26=4,38=1/1,3;
 2/9=110,12=2,17=6,18=5,40=1/2;
 3/5=44,7=101,11=2,25=1,30=1,71=1,74=-54,75=-5,116=2,124=31/1,2,3;
 4//1;
 5/5=2,8=3,13=1,38=5/2,8;
 6/7=2,8=2,9=2,10=2,28=1,40=-1/1,7;
 7//1,2,3,16;
 1/18=20,19=15,26=4/3(2);
 2/9=110/2;
 99//99;
 2/9=110/2;
 3/5=44,7=101,11=2,25=1,30=1,71=1,74=-54,75=-5,116=2,124=31/1,2,3;
 4/5=5,16=3,69=1/1;
 5/5=2,8=3,13=1,38=5/2,8;
 7//1,2,3,16;
 1/18=20,19=15,26=4/3(-5);
 2/9=110/2;
 6/7=2,8=2,9=2,10=2,19=2,28=1,40=-1/1,7;
 99/9=1/99;
 -----------------------------
 AMPA.a.Zn.CONF1.B3LYP.optfreq
 -----------------------------
 Symbolic Z-matrix:
 Charge =  1 Multiplicity = 1
 N                    -1.72257  -1.61549  -1.15617 
 C                    -2.2232   -0.19895  -1.29327 
 P                    -1.86937   0.79304   0.24911 
 O                    -1.20046   2.11205  -0.07919 
 O                    -1.04973  -0.17625   1.14219 
 O                    -3.33834   1.00694   0.87099 
 Zn                   -0.03851  -1.3951   -0.01765 
 H                    -3.48427   1.90161   1.22635 
 H                    -1.60767  -2.02961  -2.08281 
 H                    -1.6714    0.26846  -2.11125 
 H                    -3.2907   -0.18498  -1.52663 
 H                    -2.42263  -2.18015  -0.67129 
 N                     1.63946  -1.63439   1.15853 
 C                     2.14842  -0.2296    1.32041 
 P                     1.92789   0.70618  -0.26385 
 O                     1.33438   2.12687  -0.01177 
 O                     1.08679  -0.19032  -1.1751 
 O                     3.43176   0.91946  -0.75003 
 H                     3.58051   1.66471  -1.36035 
 H                     1.45586  -2.03236   2.08144 
 H                     1.53575   0.26196   2.07909 
 H                     3.19565  -0.21388   1.63352 
 H                     2.35729  -2.21898   0.72644 
 H                     0.28278   2.18806  -0.03886 
 

 GradGradGradGradGradGradGradGradGradGradGradGradGradGradGradGradGradGrad
 Berny optimization.
 Initialization pass.
                           ----------------------------
                           !    Initial Parameters    !
                           ! (Angstroms and Degrees)  !
 --------------------------                            --------------------------
 ! Name  Definition              Value          Derivative Info.                !
 --------------------------------------------------------------------------------
 ! R1    R(1,2)                  1.5086         estimate D2E/DX2                !
 ! R2    R(1,7)                  2.0447         estimate D2E/DX2                !
 ! R3    R(1,9)                  1.0215         estimate D2E/DX2                !
 ! R4    R(1,12)                 1.0218         estimate D2E/DX2                !
 ! R5    R(2,3)                  1.8677         estimate D2E/DX2                !
 ! R6    R(2,10)                 1.0918         estimate D2E/DX2                !
 ! R7    R(2,11)                 1.0928         estimate D2E/DX2                !
 ! R8    R(3,4)                  1.5149         estimate D2E/DX2                !
 ! R9    R(3,5)                  1.5521         estimate D2E/DX2                !
 ! R10   R(3,6)                  1.6095         estimate D2E/DX2                !
 ! R11   R(5,7)                  1.963          estimate D2E/DX2                !
 ! R12   R(6,8)                  0.9737         estimate D2E/DX2                !
 ! R13   R(7,13)                 2.0631         estimate D2E/DX2                !
 ! R14   R(7,17)                 2.0143         estimate D2E/DX2                !
 ! R15   R(13,14)                1.5029         estimate D2E/DX2                !
 ! R16   R(13,20)                1.0217         estimate D2E/DX2                !
 ! R17   R(13,23)                1.0216         estimate D2E/DX2                !
 ! R18   R(14,15)                1.8532         estimate D2E/DX2                !
 ! R19   R(14,21)                1.0921         estimate D2E/DX2                !
 ! R20   R(14,22)                1.0932         estimate D2E/DX2                !
 ! R21   R(15,16)                1.5602         estimate D2E/DX2                !
 ! R22   R(15,17)                1.5302         estimate D2E/DX2                !
 ! R23   R(15,18)                1.5948         estimate D2E/DX2                !
 ! R24   R(16,24)                1.0537         estimate D2E/DX2                !
 ! R25   R(18,19)                0.9747         estimate D2E/DX2                !
 ! A1    A(2,1,7)              102.8679         estimate D2E/DX2                !
 ! A2    A(2,1,9)              109.6061         estimate D2E/DX2                !
 ! A3    A(2,1,12)             109.5516         estimate D2E/DX2                !
 ! A4    A(7,1,9)              117.1413         estimate D2E/DX2                !
 ! A5    A(7,1,12)             111.0771         estimate D2E/DX2                !
 ! A6    A(9,1,12)             106.4705         estimate D2E/DX2                !
 ! A7    A(1,2,3)              111.149          estimate D2E/DX2                !
 ! A8    A(1,2,10)             107.5983         estimate D2E/DX2                !
 ! A9    A(1,2,11)             110.8283         estimate D2E/DX2                !
 ! A10   A(3,2,10)             107.1924         estimate D2E/DX2                !
 ! A11   A(3,2,11)             110.7702         estimate D2E/DX2                !
 ! A12   A(10,2,11)            109.1623         estimate D2E/DX2                !
 ! A13   A(2,3,4)              111.5388         estimate D2E/DX2                !
 ! A14   A(2,3,5)              104.0955         estimate D2E/DX2                !
 ! A15   A(2,3,6)              102.5195         estimate D2E/DX2                !
 ! A16   A(4,3,5)              115.8022         estimate D2E/DX2                !
 ! A17   A(4,3,6)              111.7787         estimate D2E/DX2                !
 ! A18   A(5,3,6)              110.0394         estimate D2E/DX2                !
 ! A19   A(3,5,7)              108.6526         estimate D2E/DX2                !
 ! A20   A(3,6,8)              113.5739         estimate D2E/DX2                !
 ! A21   A(1,7,5)               88.3751         estimate D2E/DX2                !
 ! A22   A(1,7,17)             101.808          estimate D2E/DX2                !
 ! A23   A(5,7,13)              98.8673         estimate D2E/DX2                !
 ! A24   A(5,7,17)             104.8281         estimate D2E/DX2                !
 ! A25   A(13,7,17)             86.709          estimate D2E/DX2                !
 ! A26   A(7,13,14)            103.2047         estimate D2E/DX2                !
 ! A27   A(7,13,20)            114.4571         estimate D2E/DX2                !
 ! A28   A(7,13,23)            113.373          estimate D2E/DX2                !
 ! A29   A(14,13,20)           109.1266         estimate D2E/DX2                !
 ! A30   A(14,13,23)           110.0274         estimate D2E/DX2                !
 ! A31   A(20,13,23)           106.5847         estimate D2E/DX2                !
 ! A32   A(13,14,15)           109.8538         estimate D2E/DX2                !
 ! A33   A(13,14,21)           107.7933         estimate D2E/DX2                !
 ! A34   A(13,14,22)           111.637          estimate D2E/DX2                !
 ! A35   A(15,14,21)           107.449          estimate D2E/DX2                !
 ! A36   A(15,14,22)           110.5856         estimate D2E/DX2                !
 ! A37   A(21,14,22)           109.3896         estimate D2E/DX2                !
 ! A38   A(14,15,16)           111.5281         estimate D2E/DX2                !
 ! A39   A(14,15,17)           106.1806         estimate D2E/DX2                !
 ! A40   A(14,15,18)           102.4701         estimate D2E/DX2                !
 ! A41   A(16,15,17)           114.8729         estimate D2E/DX2                !
 ! A42   A(16,15,18)           106.6303         estimate D2E/DX2                !
 ! A43   A(17,15,18)           114.527          estimate D2E/DX2                !
 ! A44   A(15,16,24)           115.3638         estimate D2E/DX2                !
 ! A45   A(7,17,15)            108.3786         estimate D2E/DX2                !
 ! A46   A(15,18,19)           115.9159         estimate D2E/DX2                !
 ! A47   L(1,7,13,5,-1)        187.2425         estimate D2E/DX2                !
 ! A48   L(1,7,13,5,-2)        169.2913         estimate D2E/DX2                !
 ! D1    D(7,1,2,3)            -34.0353         estimate D2E/DX2                !
 ! D2    D(7,1,2,10)            83.042          estimate D2E/DX2                !
 ! D3    D(7,1,2,11)          -157.6762         estimate D2E/DX2                !
 ! D4    D(9,1,2,3)           -159.353          estimate D2E/DX2                !
 ! D5    D(9,1,2,10)           -42.2756         estimate D2E/DX2                !
 ! D6    D(9,1,2,11)            77.0062         estimate D2E/DX2                !
 ! D7    D(12,1,2,3)            84.1669         estimate D2E/DX2                !
 ! D8    D(12,1,2,10)         -158.7557         estimate D2E/DX2                !
 ! D9    D(12,1,2,11)          -39.4739         estimate D2E/DX2                !
 ! D10   D(2,1,7,5)             44.594          estimate D2E/DX2                !
 ! D11   D(2,1,7,17)           -60.2168         estimate D2E/DX2                !
 ! D12   D(9,1,7,5)            164.852          estimate D2E/DX2                !
 ! D13   D(9,1,7,17)            60.0412         estimate D2E/DX2                !
 ! D14   D(12,1,7,5)           -72.5309         estimate D2E/DX2                !
 ! D15   D(12,1,7,17)         -177.3417         estimate D2E/DX2                !
 ! D16   D(1,2,3,4)            130.052          estimate D2E/DX2                !
 ! D17   D(1,2,3,5)              4.4906         estimate D2E/DX2                !
 ! D18   D(1,2,3,6)           -110.1968         estimate D2E/DX2                !
 ! D19   D(10,2,3,4)            12.7273         estimate D2E/DX2                !
 ! D20   D(10,2,3,5)          -112.8342         estimate D2E/DX2                !
 ! D21   D(10,2,3,6)           132.4784         estimate D2E/DX2                !
 ! D22   D(11,2,3,4)          -106.274          estimate D2E/DX2                !
 ! D23   D(11,2,3,5)           128.1646         estimate D2E/DX2                !
 ! D24   D(11,2,3,6)            13.4772         estimate D2E/DX2                !
 ! D25   D(2,3,5,7)             29.7244         estimate D2E/DX2                !
 ! D26   D(4,3,5,7)            -93.0848         estimate D2E/DX2                !
 ! D27   D(6,3,5,7)            138.9625         estimate D2E/DX2                !
 ! D28   D(2,3,6,8)           -138.9111         estimate D2E/DX2                !
 ! D29   D(4,3,6,8)            -19.3271         estimate D2E/DX2                !
 ! D30   D(5,3,6,8)            110.813          estimate D2E/DX2                !
 ! D31   D(3,5,7,1)            -44.2017         estimate D2E/DX2                !
 ! D32   D(3,5,7,13)           146.507          estimate D2E/DX2                !
 ! D33   D(3,5,7,17)            57.5843         estimate D2E/DX2                !
 ! D34   D(5,7,13,14)          -58.3476         estimate D2E/DX2                !
 ! D35   D(5,7,13,20)           60.106          estimate D2E/DX2                !
 ! D36   D(5,7,13,23)         -177.3352         estimate D2E/DX2                !
 ! D37   D(17,7,13,14)          46.1579         estimate D2E/DX2                !
 ! D38   D(17,7,13,20)         164.6115         estimate D2E/DX2                !
 ! D39   D(17,7,13,23)         -72.8298         estimate D2E/DX2                !
 ! D40   D(1,7,17,15)          147.4414         estimate D2E/DX2                !
 ! D41   D(5,7,17,15)           55.9872         estimate D2E/DX2                !
 ! D42   D(13,7,17,15)         -42.321          estimate D2E/DX2                !
 ! D43   D(7,13,14,15)         -38.127          estimate D2E/DX2                !
 ! D44   D(7,13,14,21)          78.662          estimate D2E/DX2                !
 ! D45   D(7,13,14,22)        -161.1788         estimate D2E/DX2                !
 ! D46   D(20,13,14,15)       -160.2321         estimate D2E/DX2                !
 ! D47   D(20,13,14,21)        -43.4431         estimate D2E/DX2                !
 ! D48   D(20,13,14,22)         76.7162         estimate D2E/DX2                !
 ! D49   D(23,13,14,15)         83.1545         estimate D2E/DX2                !
 ! D50   D(23,13,14,21)       -160.0565         estimate D2E/DX2                !
 ! D51   D(23,13,14,22)        -39.8972         estimate D2E/DX2                !
 ! D52   D(13,14,15,16)        134.6697         estimate D2E/DX2                !
 ! D53   D(13,14,15,17)          8.8482         estimate D2E/DX2                !
 ! D54   D(13,14,15,18)       -111.6064         estimate D2E/DX2                !
 ! D55   D(21,14,15,16)         17.6651         estimate D2E/DX2                !
 ! D56   D(21,14,15,17)       -108.1563         estimate D2E/DX2                !
 ! D57   D(21,14,15,18)        131.389          estimate D2E/DX2                !
 ! D58   D(22,14,15,16)       -101.662          estimate D2E/DX2                !
 ! D59   D(22,14,15,17)        132.5165         estimate D2E/DX2                !
 ! D60   D(22,14,15,18)         12.0619         estimate D2E/DX2                !
 ! D61   D(14,15,16,24)        -90.8777         estimate D2E/DX2                !
 ! D62   D(17,15,16,24)         29.9913         estimate D2E/DX2                !
 ! D63   D(18,15,16,24)        158.017          estimate D2E/DX2                !
 ! D64   D(14,15,17,7)          26.6417         estimate D2E/DX2                !
 ! D65   D(16,15,17,7)         -97.1159         estimate D2E/DX2                !
 ! D66   D(18,15,17,7)         138.9466         estimate D2E/DX2                !
 ! D67   D(14,15,18,19)       -157.0791         estimate D2E/DX2                !
 ! D68   D(16,15,18,19)        -39.8026         estimate D2E/DX2                !
 ! D69   D(17,15,18,19)         88.4258         estimate D2E/DX2                !
 --------------------------------------------------------------------------------
 Trust Radius=3.00D-01 FncErr=1.00D-07 GrdErr=1.00D-06 EigMax=2.50D+02 EigMin=1.00D-04
 Number of steps in this run=    144 maximum allowed number of steps=    144.
 GradGradGradGradGradGradGradGradGradGradGradGradGradGradGradGradGradGrad

                          Input orientation:                          
 ---------------------------------------------------------------------
 Center     Atomic      Atomic             Coordinates (Angstroms)
 Number     Number       Type             X           Y           Z
 ---------------------------------------------------------------------
      1          7           0       -1.722569   -1.615491   -1.156169
      2          6           0       -2.223197   -0.198950   -1.293271
      3         15           0       -1.869373    0.793037    0.249113
      4          8           0       -1.200464    2.112052   -0.079188
      5          8           0       -1.049727   -0.176247    1.142188
      6          8           0       -3.338343    1.006936    0.870992
      7         30           0       -0.038515   -1.395098   -0.017649
      8          1           0       -3.484270    1.901609    1.226346
      9          1           0       -1.607672   -2.029607   -2.082813
     10          1           0       -1.671396    0.268458   -2.111248
     11          1           0       -3.290704   -0.184978   -1.526629
     12          1           0       -2.422632   -2.180153   -0.671287
     13          7           0        1.639462   -1.634388    1.158535
     14          6           0        2.148418   -0.229600    1.320413
     15         15           0        1.927889    0.706181   -0.263850
     16          8           0        1.334375    2.126871   -0.011765
     17          8           0        1.086792   -0.190319   -1.175103
     18          8           0        3.431763    0.919463   -0.750032
     19          1           0        3.580514    1.664705   -1.360351
     20          1           0        1.455861   -2.032358    2.081440
     21          1           0        1.535750    0.261964    2.079091
     22          1           0        3.195649   -0.213876    1.633525
     23          1           0        2.357291   -2.218976    0.726436
     24          1           0        0.282780    2.188056   -0.038864
 ---------------------------------------------------------------------
                    Distance matrix (angstroms):
                    1          2          3          4          5
     1  N    0.000000
     2  C    1.508646   0.000000
     3  P    2.792378   1.867666   0.000000
     4  O    3.914978   2.803696   1.514933   0.000000
     5  O    2.794027   2.703518   1.552067   2.598229   0.000000
     6  O    3.687442   2.716937   1.609460   2.587403   2.590604
     7  Zn   2.044710   2.798360   2.865508   3.695133   1.963001
     8  H    4.598908   3.514416   2.189020   2.639030   3.201806
     9  H    1.021451   2.086517   3.670652   4.618838   3.761233
    10  H    2.112832   1.091806   2.426042   2.783861   3.342017
    11  H    2.154682   1.092805   2.475874   3.426446   3.484915
    12  H    1.021784   2.086098   3.161186   4.501922   3.031369
    13  N    4.081846   4.794994   4.362495   4.861373   3.059115
    14  C    4.799864   5.093457   4.282069   4.319402   3.203552
    15  P    4.417266   4.371555   3.832737   3.434700   3.409080
    16  O    4.965868   4.439372   3.480111   2.535779   3.509973
    17  O    3.150235   3.312109   3.425535   3.425417   3.151944
    18  O    5.758305   5.790037   5.395953   4.830096   4.986465
    19  H    6.238915   6.095963   5.749038   4.969833   5.575925
    20  H    4.556129   5.318414   4.732596   5.375919   3.256581
    21  H    4.960684   5.070991   3.902015   3.945613   2.784692
    22  H    5.825443   6.158754   5.346487   5.260146   4.273880
    23  H    4.533614   5.398203   5.211981   5.662548   3.994166
    24  H    4.442608   3.681203   2.580847   1.485737   2.959795
                    6          7          8          9         10
     6  O    0.000000
     7  Zn   4.177118   0.000000
     8  H    0.973658   4.928390   0.000000
     9  H    4.576110   2.670160   5.470521   0.000000
    10  H    3.495399   3.133189   4.134395   2.299124   0.000000
    11  H    2.677968   3.783932   3.459795   2.558240   1.780321
    12  H    3.657143   2.593756   4.624810   1.636835   2.938289
    13  N    5.642501   2.063074   6.225793   4.605042   5.027334
    14  C    5.642300   2.816287   6.023128   5.378678   5.159006
    15  P    5.395510   2.888379   5.739442   4.826319   4.069316
    16  O    4.885469   3.780096   4.980261   5.497380   4.110497
    17  O    5.020134   2.014325   5.571151   3.386304   2.948635
    18  O    6.962019   4.235139   7.259628   5.989092   5.321555
    19  H    7.299461   4.925709   7.527170   6.409927   5.485974
    20  H    5.804041   2.654324   6.372768   5.169743   5.714204
    21  H    5.076541   3.101690   5.349412   5.696827   5.276814
    22  H    6.690657   3.818570   7.018717   6.338765   6.159878
    23  H    6.547339   2.640516   7.166098   4.862990   5.519973
    24  H    3.916046   3.597592   3.984153   5.053733   3.434885
                   11         12         13         14         15
    11  H    0.000000
    12  H    2.337923   0.000000
    13  N    5.798054   4.488509   0.000000
    14  C    6.139356   5.354066   1.502887   0.000000
    15  P    5.442655   5.236789   2.754021   1.853162   0.000000
    16  O    5.388025   5.753306   3.950918   2.826716   1.560182
    17  O    4.391591   4.065627   2.799400   2.712230   1.530209
    18  O    6.856709   6.624784   3.657475   2.693337   1.594835
    19  H    7.117767   7.162088   4.582192   3.581311   2.202783
    20  H    6.241863   4.758367   1.021686   2.075748   3.636315
    21  H    6.041161   5.403452   2.110528   1.092057   2.416707
    22  H    7.215274   6.383062   2.159905   1.093151   2.460437
    23  H    6.411965   4.980240   1.021631   2.086637   3.117948
    24  H    4.540322   5.176917   4.229117   3.342649   2.225524
                   16         17         18         19         20
    16  O    0.000000
    17  O    2.604616   0.000000
    18  O    2.530199   2.628914   0.000000
    19  H    2.660342   3.113532   0.974680   0.000000
    20  H    4.657838   3.759573   4.542540   5.479813   0.000000
    21  H    2.808934   3.316006   3.468589   4.240107   2.295713
    22  H    3.413271   3.512296   2.649821   3.555345   2.556241
    23  H    4.525228   3.057036   3.631013   4.575362   1.638119
    24  H    1.053722   2.755748   3.468599   3.590999   4.866590
                   21         22         23         24
    21  H    0.000000
    22  H    1.783317   0.000000
    23  H    2.942731   2.355012   0.000000
    24  H    3.124980   4.129282   4.930640   0.000000
 Stoichiometry    C2H11N2O6P2Zn(1+)
 Framework group  C1[X(C2H11N2O6P2Zn)]
 Deg. of freedom    66
 Full point group                 C1      NOp   1
 Largest Abelian subgroup         C1      NOp   1
 Largest concise Abelian subgroup C1      NOp   1
                         Standard orientation:                         
 ---------------------------------------------------------------------
 Center     Atomic      Atomic             Coordinates (Angstroms)
 Number     Number       Type             X           Y           Z
 ---------------------------------------------------------------------
      1          7           0       -1.737700   -1.605937   -1.141573
      2          6           0       -2.233552   -0.187893   -1.280474
      3         15           0       -1.870574    0.806638    0.258140
      4          8           0       -1.197946    2.122328   -0.075855
      5          8           0       -1.051364   -0.163443    1.150748
      6          8           0       -3.336523    1.027560    0.884677
      7         30           0       -0.048806   -1.388953   -0.009586
      8          1           0       -3.477866    1.923657    1.238287
      9          1           0       -1.627632   -2.022802   -2.067571
     10          1           0       -1.682929    0.275406   -2.101576
     11          1           0       -3.301822   -0.170536   -1.510083
     12          1           0       -2.438126   -2.166774   -0.652792
     13          7           0        1.632437   -1.631531    1.161247
     14          6           0        2.147174   -0.228244    1.317778
     15         15           0        1.924494    0.704373   -0.268050
     16          8           0        1.337154    2.127889   -0.017449
     17          8           0        1.076845   -0.191277   -1.174053
     18          8           0        3.427412    0.910839   -0.760092
     19          1           0        3.576759    1.653989   -1.372812
     20          1           0        1.450640   -2.026498    2.085798
     21          1           0        1.539033    0.267497    2.077378
     22          1           0        3.195562   -0.215629    1.627137
     23          1           0        2.346553   -2.219867    0.728085
     24          1           0        0.285704    2.192916   -0.040976
 ---------------------------------------------------------------------
 Rotational constants (GHZ):           0.8259105           0.4537897           0.3665719
 Standard basis: def2TZVP (5D, 7F)
 There are   565 symmetry adapted cartesian basis functions of A   symmetry.
 There are   498 symmetry adapted basis functions of A   symmetry.
   498 basis functions,   841 primitive gaussians,   565 cartesian basis functions
    72 alpha electrons       72 beta electrons
       nuclear repulsion energy      1752.2275861301 Hartrees.
 NAtoms=   24 NActive=   24 NUniq=   24 SFac= 1.00D+00 NAtFMM=   60 NAOKFM=F Big=F
 Integral buffers will be    131072 words long.
 Raffenetti 2 integral format.
 Two-electron integral symmetry is turned on.
 Nuclear repulsion after empirical dispersion term =     1752.2232274550 Hartrees.
 One-electron integrals computed using PRISM.
   1 Symmetry operations used in ECPInt.
 ECPInt:  NShTT=   19306 NPrTT=   64287 LenC2=   17893 LenP2D=   42487.
 LDataN:  DoStor=T MaxTD1= 6 Len=  172
 NBasis=   498 RedAO= T EigKep=  3.41D-04  NBF=   498
 NBsUse=   498 1.00D-06 EigRej= -1.00D+00 NBFU=   498
 ExpMin= 4.78D-02 ExpMax= 4.06D+05 ExpMxC= 3.92D+03 IAcc=3 IRadAn=         5 AccDes= 0.00D+00
 Harris functional with IExCor= 1009 and IRadAn=       5 diagonalized for initial guess.
 HarFok:  IExCor= 1009 AccDes= 0.00D+00 IRadAn=         5 IDoV= 1 UseB2=F ITyADJ=14
 ICtDFT=  3500011 ScaDFX=  1.000000  1.000000  1.000000  1.000000
 FoFCou: FMM=F IPFlag=           0 FMFlag=      100000 FMFlg1=           0
         NFxFlg=           0 DoJE=T BraDBF=F KetDBF=T FulRan=T
         wScrn=  0.000000 ICntrl=       500 IOpCl=  0 I1Cent=   200000004 NGrid=           0
         NMat0=    1 NMatS0=      1 NMatT0=    0 NMatD0=    1 NMtDS0=    0 NMtDT0=    0
 Petite list used in FoFCou.
 Initial guess <Sx>= 0.0000 <Sy>= 0.0000 <Sz>= 0.0000 <S**2>=-0.0000 S=-0.0000
 Requested convergence on RMS density matrix=1.00D-08 within  32 cycles.
 Requested convergence on MAX density matrix=1.00D-06.
 Requested convergence on             energy=1.00D-06.
 No special actions if energy rises.
 SCF Done:  E(UM06) =  -3105.78583469     A.U. after   13 cycles
            NFock= 13  Conv=0.36D-08     -V/T= 2.0021
 <Sx>= 0.0000 <Sy>= 0.0000 <Sz>= 0.0000 <S**2>=-0.0000 S=-0.0000
 <L.S>= 0.000000000000E+00
 Annihilation of the first spin contaminant:
 S**2 before annihilation    -0.0000,   after    -0.0000
 QCSCF skips out because SCF is already converged.

 **********************************************************************

            Population analysis using the SCF Density.

 **********************************************************************

 Orbital symmetries:
 Alpha Orbitals:
       Occupied  (A) (A) (A) (A) (A) (A) (A) (A) (A) (A) (A) (A)
                 (A) (A) (A) (A) (A) (A) (A) (A) (A) (A) (A) (A)
                 (A) (A) (A) (A) (A) (A) (A) (A) (A) (A) (A) (A)
                 (A) (A) (A) (A) (A) (A) (A) (A) (A) (A) (A) (A)
                 (A) (A) (A) (A) (A) (A) (A) (A) (A) (A) (A) (A)
                 (A) (A) (A) (A) (A) (A) (A) (A) (A) (A) (A) (A)
       Virtual   (A) (A) (A) (A) (A) (A) (A) (A) (A) (A) (A) (A)
                 (A) (A) (A) (A) (A) (A) (A) (A) (A) (A) (A) (A)
                 (A) (A) (A) (A) (A) (A) (A) (A) (A) (A) (A) (A)
                 (A) (A) (A) (A) (A) (A) (A) (A) (A) (A) (A) (A)
                 (A) (A) (A) (A) (A) (A) (A) (A) (A) (A) (A) (A)
                 (A) (A) (A) (A) (A) (A) (A) (A) (A) (A) (A) (A)
                 (A) (A) (A) (A) (A) (A) (A) (A) (A) (A) (A) (A)
                 (A) (A) (A) (A) (A) (A) (A) (A) (A) (A) (A) (A)
                 (A) (A) (A) (A) (A) (A) (A) (A) (A) (A) (A) (A)
                 (A) (A) (A) (A) (A) (A) (A) (A) (A) (A) (A) (A)
                 (A) (A) (A) (A) (A) (A) (A) (A) (A) (A) (A) (A)
                 (A) (A) (A) (A) (A) (A) (A) (A) (A) (A) (A) (A)
                 (A) (A) (A) (A) (A) (A) (A) (A) (A) (A) (A) (A)
                 (A) (A) (A) (A) (A) (A) (A) (A) (A) (A) (A) (A)
                 (A) (A) (A) (A) (A) (A) (A) (A) (A) (A) (A) (A)
                 (A) (A) (A) (A) (A) (A) (A) (A) (A) (A) (A) (A)
                 (A) (A) (A) (A) (A) (A) (A) (A) (A) (A) (A) (A)
                 (A) (A) (A) (A) (A) (A) (A) (A) (A) (A) (A) (A)
                 (A) (A) (A) (A) (A) (A) (A) (A) (A) (A) (A) (A)
                 (A) (A) (A) (A) (A) (A) (A) (A) (A) (A) (A) (A)
                 (A) (A) (A) (A) (A) (A) (A) (A) (A) (A) (A) (A)
                 (A) (A) (A) (A) (A) (A) (A) (A) (A) (A) (A) (A)
                 (A) (A) (A) (A) (A) (A) (A) (A) (A) (A) (A) (A)
                 (A) (A) (A) (A) (A) (A) (A) (A) (A) (A) (A) (A)
                 (A) (A) (A) (A) (A) (A) (A) (A) (A) (A) (A) (A)
                 (A) (A) (A) (A) (A) (A) (A) (A) (A) (A) (A) (A)
                 (A) (A) (A) (A) (A) (A) (A) (A) (A) (A) (A) (A)
                 (A) (A) (A) (A) (A) (A) (A) (A) (A) (A) (A) (A)
                 (A) (A) (A) (A) (A) (A) (A) (A) (A) (A) (A) (A)
                 (A) (A) (A) (A) (A) (A) (A) (A) (A) (A) (A) (A)
                 (A) (A) (A) (A) (A) (A) (A) (A) (A) (A) (A) (A)
                 (A) (A) (A) (A) (A) (A) (A) (A) (A) (A) (A) (A)
                 (A) (A) (A) (A) (A) (A) (A) (A) (A) (A) (A) (A)
                 (A) (A) (A) (A) (A) (A) (A) (A) (A) (A) (A) (A)
                 (A) (A) (A) (A) (A) (A) (A) (A) (A) (A) (A) (A)
                 (A) (A) (A) (A) (A) (A)
 Beta  Orbitals:
       Occupied  (A) (A) (A) (A) (A) (A) (A) (A) (A) (A) (A) (A)
                 (A) (A) (A) (A) (A) (A) (A) (A) (A) (A) (A) (A)
                 (A) (A) (A) (A) (A) (A) (A) (A) (A) (A) (A) (A)
                 (A) (A) (A) (A) (A) (A) (A) (A) (A) (A) (A) (A)
                 (A) (A) (A) (A) (A) (A) (A) (A) (A) (A) (A) (A)
                 (A) (A) (A) (A) (A) (A) (A) (A) (A) (A) (A) (A)
       Virtual   (A) (A) (A) (A) (A) (A) (A) (A) (A) (A) (A) (A)
                 (A) (A) (A) (A) (A) (A) (A) (A) (A) (A) (A) (A)
                 (A) (A) (A) (A) (A) (A) (A) (A) (A) (A) (A) (A)
                 (A) (A) (A) (A) (A) (A) (A) (A) (A) (A) (A) (A)
                 (A) (A) (A) (A) (A) (A) (A) (A) (A) (A) (A) (A)
                 (A) (A) (A) (A) (A) (A) (A) (A) (A) (A) (A) (A)
                 (A) (A) (A) (A) (A) (A) (A) (A) (A) (A) (A) (A)
                 (A) (A) (A) (A) (A) (A) (A) (A) (A) (A) (A) (A)
                 (A) (A) (A) (A) (A) (A) (A) (A) (A) (A) (A) (A)
                 (A) (A) (A) (A) (A) (A) (A) (A) (A) (A) (A) (A)
                 (A) (A) (A) (A) (A) (A) (A) (A) (A) (A) (A) (A)
                 (A) (A) (A) (A) (A) (A) (A) (A) (A) (A) (A) (A)
                 (A) (A) (A) (A) (A) (A) (A) (A) (A) (A) (A) (A)
                 (A) (A) (A) (A) (A) (A) (A) (A) (A) (A) (A) (A)
                 (A) (A) (A) (A) (A) (A) (A) (A) (A) (A) (A) (A)
                 (A) (A) (A) (A) (A) (A) (A) (A) (A) (A) (A) (A)
                 (A) (A) (A) (A) (A) (A) (A) (A) (A) (A) (A) (A)
                 (A) (A) (A) (A) (A) (A) (A) (A) (A) (A) (A) (A)
                 (A) (A) (A) (A) (A) (A) (A) (A) (A) (A) (A) (A)
                 (A) (A) (A) (A) (A) (A) (A) (A) (A) (A) (A) (A)
                 (A) (A) (A) (A) (A) (A) (A) (A) (A) (A) (A) (A)
                 (A) (A) (A) (A) (A) (A) (A) (A) (A) (A) (A) (A)
                 (A) (A) (A) (A) (A) (A) (A) (A) (A) (A) (A) (A)
                 (A) (A) (A) (A) (A) (A) (A) (A) (A) (A) (A) (A)
                 (A) (A) (A) (A) (A) (A) (A) (A) (A) (A) (A) (A)
                 (A) (A) (A) (A) (A) (A) (A) (A) (A) (A) (A) (A)
                 (A) (A) (A) (A) (A) (A) (A) (A) (A) (A) (A) (A)
                 (A) (A) (A) (A) (A) (A) (A) (A) (A) (A) (A) (A)
                 (A) (A) (A) (A) (A) (A) (A) (A) (A) (A) (A) (A)
                 (A) (A) (A) (A) (A) (A) (A) (A) (A) (A) (A) (A)
                 (A) (A) (A) (A) (A) (A) (A) (A) (A) (A) (A) (A)
                 (A) (A) (A) (A) (A) (A) (A) (A) (A) (A) (A) (A)
                 (A) (A) (A) (A) (A) (A) (A) (A) (A) (A) (A) (A)
                 (A) (A) (A) (A) (A) (A) (A) (A) (A) (A) (A) (A)
                 (A) (A) (A) (A) (A) (A) (A) (A) (A) (A) (A) (A)
                 (A) (A) (A) (A) (A) (A)
 The electronic state is 1-A.
 Alpha  occ. eigenvalues -- -347.71207 -77.49882 -77.46030 -42.62115 -37.50887
 Alpha  occ. eigenvalues --  -37.50689 -37.50589 -19.39057 -19.35995 -19.35924
 Alpha  occ. eigenvalues --  -19.34843 -19.32618 -19.29909 -14.60959 -14.60137
 Alpha  occ. eigenvalues --  -10.44528 -10.42588  -6.90287  -6.86444  -5.10033
 Alpha  occ. eigenvalues --   -5.02350  -5.02174  -5.02160  -4.98509  -4.98388
 Alpha  occ. eigenvalues --   -4.98258  -3.45388  -3.44969  -3.44826  -1.24532
 Alpha  occ. eigenvalues --   -1.20816  -1.18870  -1.15774  -1.14575  -1.10871
 Alpha  occ. eigenvalues --   -1.10571  -1.09650  -0.88245  -0.85979  -0.78097
 Alpha  occ. eigenvalues --   -0.74440  -0.72226  -0.71441  -0.70614  -0.70456
 Alpha  occ. eigenvalues --   -0.69654  -0.69317  -0.69202  -0.67180  -0.66283
 Alpha  occ. eigenvalues --   -0.65347  -0.63830  -0.63188  -0.62411  -0.60659
 Alpha  occ. eigenvalues --   -0.58331  -0.57935  -0.56729  -0.56169  -0.55229
 Alpha  occ. eigenvalues --   -0.53403  -0.52924  -0.52336  -0.51063  -0.49506
 Alpha  occ. eigenvalues --   -0.48711  -0.48619  -0.47818  -0.47018  -0.46130
 Alpha  occ. eigenvalues --   -0.43773  -0.43229
 Alpha virt. eigenvalues --   -0.19390  -0.13201  -0.11719  -0.11364  -0.10130
 Alpha virt. eigenvalues --   -0.09167  -0.08251  -0.07435  -0.06917  -0.06264
 Alpha virt. eigenvalues --   -0.05457  -0.05209  -0.04004  -0.03817  -0.03091
 Alpha virt. eigenvalues --   -0.02019  -0.01296   0.00266   0.00492   0.01169
 Alpha virt. eigenvalues --    0.02212   0.03173   0.04379   0.04736   0.05378
 Alpha virt. eigenvalues --    0.07283   0.07675   0.08343   0.09410   0.11013
 Alpha virt. eigenvalues --    0.11606   0.12294   0.12840   0.13636   0.14645
 Alpha virt. eigenvalues --    0.15231   0.16274   0.16668   0.17215   0.18369
 Alpha virt. eigenvalues --    0.18795   0.19464   0.19693   0.20908   0.22097
 Alpha virt. eigenvalues --    0.22685   0.23520   0.24442   0.24598   0.25482
 Alpha virt. eigenvalues --    0.25776   0.26301   0.27349   0.27840   0.29080
 Alpha virt. eigenvalues --    0.29691   0.29894   0.30743   0.31209   0.32276
 Alpha virt. eigenvalues --    0.33047   0.34197   0.35238   0.35516   0.35950
 Alpha virt. eigenvalues --    0.37017   0.37189   0.38709   0.38963   0.39192
 Alpha virt. eigenvalues --    0.42348   0.43192   0.43606   0.44030   0.44907
 Alpha virt. eigenvalues --    0.45606   0.46978   0.47889   0.49141   0.49552
 Alpha virt. eigenvalues --    0.51173   0.52539   0.54447   0.56041   0.56824
 Alpha virt. eigenvalues --    0.57313   0.58495   0.59127   0.61327   0.62532
 Alpha virt. eigenvalues --    0.63036   0.64122   0.65025   0.67313   0.67488
 Alpha virt. eigenvalues --    0.69151   0.70295   0.71589   0.72739   0.73967
 Alpha virt. eigenvalues --    0.74387   0.77082   0.78578   0.79275   0.81029
 Alpha virt. eigenvalues --    0.82724   0.84304   0.85550   0.87506   0.87881
 Alpha virt. eigenvalues --    0.90305   0.91070   0.93605   0.96348   1.00840
 Alpha virt. eigenvalues --    1.01438   1.02393   1.02759   1.03467   1.04689
 Alpha virt. eigenvalues --    1.05313   1.06091   1.09022   1.09162   1.11663
 Alpha virt. eigenvalues --    1.12128   1.13262   1.13642   1.16299   1.17042
 Alpha virt. eigenvalues --    1.17496   1.19054   1.19553   1.21951   1.22626
 Alpha virt. eigenvalues --    1.23312   1.25926   1.27107   1.27655   1.27922
 Alpha virt. eigenvalues --    1.29251   1.30774   1.31289   1.32797   1.33348
 Alpha virt. eigenvalues --    1.33921   1.35446   1.36385   1.37111   1.39639
 Alpha virt. eigenvalues --    1.40763   1.41972   1.43868   1.45466   1.46432
 Alpha virt. eigenvalues --    1.47094   1.49399   1.50346   1.53261   1.55204
 Alpha virt. eigenvalues --    1.56943   1.57533   1.58128   1.60345   1.61431
 Alpha virt. eigenvalues --    1.62411   1.65694   1.66694   1.68085   1.68292
 Alpha virt. eigenvalues --    1.70640   1.71280   1.72373   1.73389   1.75165
 Alpha virt. eigenvalues --    1.77049   1.77665   1.78255   1.78508   1.79730
 Alpha virt. eigenvalues --    1.80299   1.81560   1.82760   1.82960   1.84458
 Alpha virt. eigenvalues --    1.85080   1.86163   1.87652   1.89311   1.90990
 Alpha virt. eigenvalues --    1.91349   1.92666   1.92943   1.94790   1.95878
 Alpha virt. eigenvalues --    1.97008   1.97697   1.99199   2.00963   2.03969
 Alpha virt. eigenvalues --    2.05344   2.07518   2.08865   2.09627   2.10417
 Alpha virt. eigenvalues --    2.11968   2.12972   2.13865   2.15334   2.15935
 Alpha virt. eigenvalues --    2.16744   2.17469   2.19336   2.21667   2.22385
 Alpha virt. eigenvalues --    2.23210   2.24048   2.25702   2.28496   2.31125
 Alpha virt. eigenvalues --    2.31466   2.34154   2.35285   2.36469   2.38599
 Alpha virt. eigenvalues --    2.38869   2.39228   2.41568   2.43606   2.46088
 Alpha virt. eigenvalues --    2.47667   2.50167   2.52888   2.53342   2.53774
 Alpha virt. eigenvalues --    2.54618   2.55753   2.57904   2.58863   2.59812
 Alpha virt. eigenvalues --    2.62076   2.65938   2.69908   2.71936   2.72783
 Alpha virt. eigenvalues --    2.73218   2.76118   2.76902   2.79263   2.80924
 Alpha virt. eigenvalues --    2.81118   2.81710   2.83915   2.84860   2.87399
 Alpha virt. eigenvalues --    2.89484   2.90265   2.93289   2.95220   2.96247
 Alpha virt. eigenvalues --    2.99018   2.99976   3.02545   3.03693   3.06198
 Alpha virt. eigenvalues --    3.07511   3.10309   3.11368   3.14254   3.14582
 Alpha virt. eigenvalues --    3.15041   3.16440   3.18366   3.22161   3.23876
 Alpha virt. eigenvalues --    3.25892   3.30627   3.32683   3.35680   3.38197
 Alpha virt. eigenvalues --    3.39217   3.41928   3.42983   3.45776   3.55068
 Alpha virt. eigenvalues --    3.55793   3.61186   3.62771   3.63726   3.64604
 Alpha virt. eigenvalues --    3.70448   3.75357   3.76817   3.82402   3.85494
 Alpha virt. eigenvalues --    3.89907   3.91038   3.92595   3.99961   4.07747
 Alpha virt. eigenvalues --    4.09071   4.11144   4.12508   4.22797   4.43334
 Alpha virt. eigenvalues --    4.44218   4.50856   4.51082   4.62148   4.65534
 Alpha virt. eigenvalues --    4.69615   4.74601   4.75849   4.79929   4.80414
 Alpha virt. eigenvalues --    4.80942   4.86117   4.86690   4.88764   4.90731
 Alpha virt. eigenvalues --    4.91736   4.94083   4.97324   4.98336   4.99475
 Alpha virt. eigenvalues --    5.00473   5.00767   5.01477   5.01944   5.03278
 Alpha virt. eigenvalues --    5.04366   5.04760   5.04952   5.06246   5.06770
 Alpha virt. eigenvalues --    5.08167   5.10104   5.10274   5.11232   5.12606
 Alpha virt. eigenvalues --    5.13527   5.15008   5.15344   5.16864   5.17423
 Alpha virt. eigenvalues --    5.18834   5.19713   5.21424   5.22320   5.24294
 Alpha virt. eigenvalues --    5.26256   5.27702   5.28504   5.31221   5.31643
 Alpha virt. eigenvalues --    5.33155   5.35085   5.37266   5.38137   5.40049
 Alpha virt. eigenvalues --    5.41774   5.42280   5.44671   5.45244   5.48912
 Alpha virt. eigenvalues --    5.50126   5.55627   5.63260   6.02585   6.05419
 Alpha virt. eigenvalues --    6.13860   6.27188   6.28379   6.29861   6.32167
 Alpha virt. eigenvalues --    6.33314   6.37189   6.37999   6.38465   6.39682
 Alpha virt. eigenvalues --    6.40633   6.41468   6.42999   6.45116   6.47203
 Alpha virt. eigenvalues --    6.48297   6.50152   6.52615   6.53727   6.54990
 Alpha virt. eigenvalues --    6.57639   6.58747   6.62871   6.65760   6.67931
 Alpha virt. eigenvalues --    6.68224   6.69927   6.71722   6.74324   6.76901
 Alpha virt. eigenvalues --    6.79452   6.82636   6.84456   6.87074   6.89418
 Alpha virt. eigenvalues --    6.91386   6.98948   7.13416   7.68608   7.70017
 Alpha virt. eigenvalues --    7.92813   7.99703   8.07650   8.11096  16.55852
 Alpha virt. eigenvalues --   16.62208  22.09546  22.10360  31.72614  31.75531
 Alpha virt. eigenvalues --   43.39220  43.51174  43.53344  43.56424  43.66001
 Alpha virt. eigenvalues --   43.70091
  Beta  occ. eigenvalues -- -347.71207 -77.49882 -77.46030 -42.62115 -37.50887
  Beta  occ. eigenvalues --  -37.50689 -37.50589 -19.39057 -19.35995 -19.35924
  Beta  occ. eigenvalues --  -19.34843 -19.32618 -19.29909 -14.60959 -14.60137
  Beta  occ. eigenvalues --  -10.44528 -10.42588  -6.90287  -6.86444  -5.10033
  Beta  occ. eigenvalues --   -5.02350  -5.02174  -5.02160  -4.98509  -4.98388
  Beta  occ. eigenvalues --   -4.98258  -3.45388  -3.44969  -3.44826  -1.24532
  Beta  occ. eigenvalues --   -1.20816  -1.18870  -1.15774  -1.14575  -1.10871
  Beta  occ. eigenvalues --   -1.10571  -1.09650  -0.88245  -0.85979  -0.78097
  Beta  occ. eigenvalues --   -0.74440  -0.72226  -0.71441  -0.70614  -0.70456
  Beta  occ. eigenvalues --   -0.69654  -0.69317  -0.69202  -0.67180  -0.66283
  Beta  occ. eigenvalues --   -0.65347  -0.63830  -0.63188  -0.62411  -0.60659
  Beta  occ. eigenvalues --   -0.58331  -0.57935  -0.56729  -0.56169  -0.55229
  Beta  occ. eigenvalues --   -0.53403  -0.52924  -0.52336  -0.51063  -0.49506
  Beta  occ. eigenvalues --   -0.48711  -0.48619  -0.47818  -0.47018  -0.46130
  Beta  occ. eigenvalues --   -0.43773  -0.43229
  Beta virt. eigenvalues --   -0.19390  -0.13201  -0.11719  -0.11364  -0.10130
  Beta virt. eigenvalues --   -0.09167  -0.08251  -0.07435  -0.06917  -0.06264
  Beta virt. eigenvalues --   -0.05457  -0.05209  -0.04004  -0.03817  -0.03091
  Beta virt. eigenvalues --   -0.02019  -0.01296   0.00266   0.00492   0.01169
  Beta virt. eigenvalues --    0.02212   0.03173   0.04379   0.04736   0.05378
  Beta virt. eigenvalues --    0.07283   0.07675   0.08343   0.09410   0.11013
  Beta virt. eigenvalues --    0.11606   0.12294   0.12840   0.13636   0.14645
  Beta virt. eigenvalues --    0.15231   0.16274   0.16668   0.17215   0.18369
  Beta virt. eigenvalues --    0.18795   0.19464   0.19693   0.20908   0.22097
  Beta virt. eigenvalues --    0.22685   0.23520   0.24442   0.24598   0.25482
  Beta virt. eigenvalues --    0.25776   0.26301   0.27349   0.27840   0.29080
  Beta virt. eigenvalues --    0.29691   0.29894   0.30743   0.31209   0.32276
  Beta virt. eigenvalues --    0.33047   0.34197   0.35238   0.35516   0.35950
  Beta virt. eigenvalues --    0.37017   0.37189   0.38709   0.38963   0.39192
  Beta virt. eigenvalues --    0.42348   0.43192   0.43606   0.44030   0.44907
  Beta virt. eigenvalues --    0.45606   0.46978   0.47889   0.49141   0.49552
  Beta virt. eigenvalues --    0.51173   0.52539   0.54447   0.56041   0.56824
  Beta virt. eigenvalues --    0.57313   0.58495   0.59127   0.61327   0.62532
  Beta virt. eigenvalues --    0.63036   0.64122   0.65025   0.67313   0.67488
  Beta virt. eigenvalues --    0.69151   0.70295   0.71589   0.72739   0.73967
  Beta virt. eigenvalues --    0.74387   0.77082   0.78578   0.79275   0.81029
  Beta virt. eigenvalues --    0.82724   0.84304   0.85550   0.87506   0.87881
  Beta virt. eigenvalues --    0.90305   0.91070   0.93605   0.96348   1.00840
  Beta virt. eigenvalues --    1.01438   1.02393   1.02759   1.03467   1.04689
  Beta virt. eigenvalues --    1.05313   1.06091   1.09022   1.09162   1.11663
  Beta virt. eigenvalues --    1.12128   1.13262   1.13642   1.16299   1.17042
  Beta virt. eigenvalues --    1.17496   1.19054   1.19553   1.21951   1.22626
  Beta virt. eigenvalues --    1.23312   1.25926   1.27107   1.27655   1.27922
  Beta virt. eigenvalues --    1.29251   1.30774   1.31289   1.32797   1.33348
  Beta virt. eigenvalues --    1.33921   1.35446   1.36385   1.37111   1.39639
  Beta virt. eigenvalues --    1.40763   1.41972   1.43868   1.45466   1.46432
  Beta virt. eigenvalues --    1.47094   1.49399   1.50346   1.53261   1.55204
  Beta virt. eigenvalues --    1.56943   1.57533   1.58128   1.60345   1.61431
  Beta virt. eigenvalues --    1.62411   1.65694   1.66694   1.68085   1.68292
  Beta virt. eigenvalues --    1.70640   1.71280   1.72373   1.73389   1.75165
  Beta virt. eigenvalues --    1.77049   1.77665   1.78255   1.78508   1.79730
  Beta virt. eigenvalues --    1.80299   1.81560   1.82760   1.82960   1.84458
  Beta virt. eigenvalues --    1.85080   1.86163   1.87652   1.89311   1.90990
  Beta virt. eigenvalues --    1.91349   1.92666   1.92943   1.94790   1.95878
  Beta virt. eigenvalues --    1.97008   1.97697   1.99199   2.00963   2.03969
  Beta virt. eigenvalues --    2.05344   2.07518   2.08865   2.09627   2.10417
  Beta virt. eigenvalues --    2.11968   2.12972   2.13865   2.15334   2.15935
  Beta virt. eigenvalues --    2.16744   2.17469   2.19336   2.21667   2.22385
  Beta virt. eigenvalues --    2.23210   2.24048   2.25702   2.28496   2.31125
  Beta virt. eigenvalues --    2.31466   2.34154   2.35285   2.36469   2.38599
  Beta virt. eigenvalues --    2.38869   2.39228   2.41568   2.43606   2.46088
  Beta virt. eigenvalues --    2.47667   2.50167   2.52888   2.53342   2.53774
  Beta virt. eigenvalues --    2.54618   2.55753   2.57904   2.58863   2.59812
  Beta virt. eigenvalues --    2.62076   2.65938   2.69908   2.71936   2.72783
  Beta virt. eigenvalues --    2.73218   2.76118   2.76902   2.79263   2.80924
  Beta virt. eigenvalues --    2.81118   2.81710   2.83915   2.84860   2.87399
  Beta virt. eigenvalues --    2.89484   2.90265   2.93289   2.95220   2.96247
  Beta virt. eigenvalues --    2.99018   2.99976   3.02545   3.03693   3.06198
  Beta virt. eigenvalues --    3.07511   3.10309   3.11368   3.14254   3.14582
  Beta virt. eigenvalues --    3.15041   3.16440   3.18366   3.22161   3.23876
  Beta virt. eigenvalues --    3.25892   3.30627   3.32683   3.35680   3.38197
  Beta virt. eigenvalues --    3.39217   3.41928   3.42983   3.45776   3.55068
  Beta virt. eigenvalues --    3.55793   3.61186   3.62771   3.63726   3.64604
  Beta virt. eigenvalues --    3.70448   3.75357   3.76817   3.82402   3.85494
  Beta virt. eigenvalues --    3.89907   3.91038   3.92595   3.99961   4.07747
  Beta virt. eigenvalues --    4.09071   4.11144   4.12508   4.22797   4.43334
  Beta virt. eigenvalues --    4.44218   4.50856   4.51082   4.62148   4.65534
  Beta virt. eigenvalues --    4.69615   4.74601   4.75849   4.79929   4.80414
  Beta virt. eigenvalues --    4.80942   4.86117   4.86690   4.88764   4.90731
  Beta virt. eigenvalues --    4.91736   4.94083   4.97324   4.98336   4.99475
  Beta virt. eigenvalues --    5.00473   5.00767   5.01477   5.01944   5.03278
  Beta virt. eigenvalues --    5.04366   5.04760   5.04952   5.06246   5.06770
  Beta virt. eigenvalues --    5.08167   5.10104   5.10274   5.11232   5.12606
  Beta virt. eigenvalues --    5.13527   5.15008   5.15344   5.16864   5.17423
  Beta virt. eigenvalues --    5.18834   5.19713   5.21424   5.22320   5.24294
  Beta virt. eigenvalues --    5.26256   5.27702   5.28504   5.31221   5.31643
  Beta virt. eigenvalues --    5.33155   5.35085   5.37266   5.38137   5.40049
  Beta virt. eigenvalues --    5.41774   5.42280   5.44671   5.45244   5.48912
  Beta virt. eigenvalues --    5.50126   5.55627   5.63260   6.02585   6.05419
  Beta virt. eigenvalues --    6.13860   6.27188   6.28379   6.29861   6.32167
  Beta virt. eigenvalues --    6.33314   6.37189   6.37999   6.38465   6.39682
  Beta virt. eigenvalues --    6.40633   6.41468   6.42999   6.45116   6.47203
  Beta virt. eigenvalues --    6.48297   6.50152   6.52615   6.53727   6.54990
  Beta virt. eigenvalues --    6.57639   6.58747   6.62871   6.65760   6.67931
  Beta virt. eigenvalues --    6.68224   6.69927   6.71722   6.74324   6.76901
  Beta virt. eigenvalues --    6.79452   6.82636   6.84456   6.87074   6.89418
  Beta virt. eigenvalues --    6.91386   6.98948   7.13416   7.68608   7.70017
  Beta virt. eigenvalues --    7.92813   7.99703   8.07650   8.11096  16.55852
  Beta virt. eigenvalues --   16.62208  22.09546  22.10360  31.72614  31.75531
  Beta virt. eigenvalues --   43.39220  43.51174  43.53344  43.56424  43.66001
  Beta virt. eigenvalues --   43.70091
          Condensed to atoms (all electrons):
               1          2          3          4          5          6
     1  N    6.389392   0.164535  -0.032539   0.001350  -0.027229   0.000850
     2  C    0.164535   5.164342   0.284878  -0.032029  -0.044153  -0.033385
     3  P   -0.032539   0.284878  12.698146   0.510551   0.404088   0.393659
     4  O    0.001350  -0.032029   0.510551   8.114829  -0.033587  -0.030754
     5  O   -0.027229  -0.044153   0.404088  -0.033587   8.034847  -0.027929
     6  O    0.000850  -0.033385   0.393659  -0.030754  -0.027929   7.899564
     7  Zn   0.222800  -0.027664  -0.013845   0.003963   0.212213   0.001757
     8  H   -0.000132   0.003847  -0.008459   0.001259   0.001013   0.292904
     9  H    0.358857  -0.025753   0.005711  -0.000221   0.000179  -0.000106
    10  H   -0.026368   0.409079  -0.022175   0.001984   0.001945   0.000935
    11  H   -0.025079   0.397187  -0.020770   0.001767   0.000567   0.003881
    12  H    0.358901  -0.023388  -0.000058  -0.000022  -0.000034   0.000538
    13  N   -0.004597   0.000375   0.003747  -0.000016  -0.025049  -0.000004
    14  C    0.000449  -0.000021  -0.007180  -0.001478   0.004616  -0.000011
    15  P    0.002859  -0.005220   0.015290   0.004498  -0.003167   0.000075
    16  O   -0.000035  -0.000537   0.000272  -0.064811  -0.001304  -0.000060
    17  O   -0.017009  -0.002614  -0.003245  -0.002062  -0.013041   0.000002
    18  O   -0.000003  -0.000005   0.000044  -0.000060   0.000017  -0.000000
    19  H    0.000002  -0.000001  -0.000006   0.000023   0.000007   0.000000
    20  H   -0.000031  -0.000043  -0.000217  -0.000000   0.000275   0.000001
    21  H    0.000004   0.000166   0.000843   0.000438   0.000264  -0.000007
    22  H   -0.000005   0.000023   0.000041  -0.000017   0.000584  -0.000000
    23  H    0.000015  -0.000024  -0.000020   0.000003   0.000169   0.000000
    24  H   -0.000189   0.003280  -0.012326   0.100216   0.002217   0.000159
               7          8          9         10         11         12
     1  N    0.222800  -0.000132   0.358857  -0.026368  -0.025079   0.358901
     2  C   -0.027664   0.003847  -0.025753   0.409079   0.397187  -0.023388
     3  P   -0.013845  -0.008459   0.005711  -0.022175  -0.020770  -0.000058
     4  O    0.003963   0.001259  -0.000221   0.001984   0.001767  -0.000022
     5  O    0.212213   0.001013   0.000179   0.001945   0.000567  -0.000034
     6  O    0.001757   0.292904  -0.000106   0.000935   0.003881   0.000538
     7  Zn  28.862890  -0.000239  -0.013443  -0.001830   0.006377  -0.014330
     8  H   -0.000239   0.331456   0.000017  -0.000170  -0.000288  -0.000027
     9  H   -0.013443   0.000017   0.412357  -0.007849  -0.003808  -0.019812
    10  H   -0.001830  -0.000170  -0.007849   0.456587  -0.009527   0.003425
    11  H    0.006377  -0.000288  -0.003808  -0.009527   0.481675  -0.005741
    12  H   -0.014330  -0.000027  -0.019812   0.003425  -0.005741   0.408256
    13  N    0.212300   0.000003  -0.000010   0.000007  -0.000005   0.000040
    14  C   -0.024354  -0.000003  -0.000038   0.000051   0.000013  -0.000028
    15  P   -0.014945  -0.000012  -0.000224   0.000648   0.000045   0.000004
    16  O    0.000611   0.000011  -0.000001   0.000052  -0.000008   0.000002
    17  O    0.180921   0.000006   0.000329   0.000932   0.000201   0.000113
    18  O    0.001748   0.000000   0.000001   0.000001   0.000000   0.000000
    19  H   -0.000072  -0.000000  -0.000000   0.000001   0.000000  -0.000000
    20  H   -0.010348  -0.000000   0.000009   0.000002   0.000001  -0.000008
    21  H   -0.002849   0.000003   0.000003  -0.000009  -0.000002   0.000005
    22  H    0.006372   0.000000   0.000001  -0.000002  -0.000000   0.000000
    23  H   -0.014651  -0.000000  -0.000007   0.000004   0.000000   0.000011
    24  H    0.000622   0.000039   0.000012   0.000238  -0.000036   0.000009
              13         14         15         16         17         18
     1  N   -0.004597   0.000449   0.002859  -0.000035  -0.017009  -0.000003
     2  C    0.000375  -0.000021  -0.005220  -0.000537  -0.002614  -0.000005
     3  P    0.003747  -0.007180   0.015290   0.000272  -0.003245   0.000044
     4  O   -0.000016  -0.001478   0.004498  -0.064811  -0.002062  -0.000060
     5  O   -0.025049   0.004616  -0.003167  -0.001304  -0.013041   0.000017
     6  O   -0.000004  -0.000011   0.000075  -0.000060   0.000002  -0.000000
     7  Zn   0.212300  -0.024354  -0.014945   0.000611   0.180921   0.001748
     8  H    0.000003  -0.000003  -0.000012   0.000011   0.000006   0.000000
     9  H   -0.000010  -0.000038  -0.000224  -0.000001   0.000329   0.000001
    10  H    0.000007   0.000051   0.000648   0.000052   0.000932   0.000001
    11  H   -0.000005   0.000013   0.000045  -0.000008   0.000201   0.000000
    12  H    0.000040  -0.000028   0.000004   0.000002   0.000113   0.000000
    13  N    6.400341   0.185755  -0.036225   0.001425  -0.026473   0.000252
    14  C    0.185755   5.110748   0.284575  -0.021498  -0.039817  -0.025062
    15  P   -0.036225   0.284575  12.745397   0.401175   0.429136   0.403925
    16  O    0.001425  -0.021498   0.401175   7.949617  -0.025077  -0.026020
    17  O   -0.026473  -0.039817   0.429136  -0.025077   7.991379  -0.024837
    18  O    0.000252  -0.025062   0.403925  -0.026020  -0.024837   7.857740
    19  H   -0.000157   0.003646  -0.007877   0.000925   0.000511   0.295108
    20  H    0.360199  -0.026931   0.006363  -0.000172   0.000127  -0.000094
    21  H   -0.025290   0.407934  -0.019887   0.001266   0.001773   0.000485
    22  H   -0.026191   0.398309  -0.023039   0.001442   0.000456   0.002335
    23  H    0.357907  -0.023465   0.000067  -0.000014   0.000178   0.000542
    24  H   -0.000238   0.003860  -0.010116   0.244638   0.001714   0.000372
              19         20         21         22         23         24
     1  N    0.000002  -0.000031   0.000004  -0.000005   0.000015  -0.000189
     2  C   -0.000001  -0.000043   0.000166   0.000023  -0.000024   0.003280
     3  P   -0.000006  -0.000217   0.000843   0.000041  -0.000020  -0.012326
     4  O    0.000023  -0.000000   0.000438  -0.000017   0.000003   0.100216
     5  O    0.000007   0.000275   0.000264   0.000584   0.000169   0.002217
     6  O    0.000000   0.000001  -0.000007  -0.000000   0.000000   0.000159
     7  Zn  -0.000072  -0.010348  -0.002849   0.006372  -0.014651   0.000622
     8  H   -0.000000  -0.000000   0.000003   0.000000  -0.000000   0.000039
     9  H   -0.000000   0.000009   0.000003   0.000001  -0.000007   0.000012
    10  H    0.000001   0.000002  -0.000009  -0.000002   0.000004   0.000238
    11  H    0.000000   0.000001  -0.000002  -0.000000   0.000000  -0.000036
    12  H   -0.000000  -0.000008   0.000005   0.000000   0.000011   0.000009
    13  N   -0.000157   0.360199  -0.025290  -0.026191   0.357907  -0.000238
    14  C    0.003646  -0.026931   0.407934   0.398309  -0.023465   0.003860
    15  P   -0.007877   0.006363  -0.019887  -0.023039   0.000067  -0.010116
    16  O    0.000925  -0.000172   0.001266   0.001442  -0.000014   0.244638
    17  O    0.000511   0.000127   0.001773   0.000456   0.000178   0.001714
    18  O    0.295108  -0.000094   0.000485   0.002335   0.000542   0.000372
    19  H    0.320186   0.000016  -0.000121  -0.000226  -0.000031   0.000074
    20  H    0.000016   0.399976  -0.006988  -0.003435  -0.018619   0.000005
    21  H   -0.000121  -0.006988   0.436405  -0.008502   0.003200   0.000530
    22  H   -0.000226  -0.003435  -0.008502   0.474633  -0.005651  -0.000024
    23  H   -0.000031  -0.018619   0.003200  -0.005651   0.406651   0.000016
    24  H    0.000074   0.000005   0.000530  -0.000024   0.000016   0.251086
          Atomic-Atomic Spin Densities.
               1          2          3          4          5          6
     1  N    0.000000   0.000000   0.000000   0.000000   0.000000   0.000000
     2  C    0.000000   0.000000   0.000000   0.000000   0.000000   0.000000
     3  P    0.000000   0.000000   0.000000   0.000000   0.000000   0.000000
     4  O    0.000000   0.000000   0.000000   0.000000   0.000000   0.000000
     5  O    0.000000   0.000000   0.000000   0.000000   0.000000   0.000000
     6  O    0.000000   0.000000   0.000000   0.000000   0.000000   0.000000
     7  Zn   0.000000   0.000000   0.000000   0.000000   0.000000   0.000000
     8  H    0.000000   0.000000   0.000000   0.000000   0.000000   0.000000
     9  H    0.000000   0.000000   0.000000   0.000000   0.000000   0.000000
    10  H    0.000000   0.000000   0.000000   0.000000   0.000000   0.000000
    11  H    0.000000   0.000000   0.000000   0.000000   0.000000   0.000000
    12  H    0.000000   0.000000   0.000000   0.000000   0.000000   0.000000
    13  N    0.000000   0.000000   0.000000   0.000000   0.000000   0.000000
    14  C    0.000000   0.000000   0.000000   0.000000   0.000000   0.000000
    15  P    0.000000   0.000000   0.000000   0.000000   0.000000   0.000000
    16  O    0.000000   0.000000   0.000000   0.000000   0.000000   0.000000
    17  O    0.000000   0.000000   0.000000   0.000000   0.000000   0.000000
    18  O    0.000000   0.000000   0.000000   0.000000   0.000000   0.000000
    19  H    0.000000   0.000000   0.000000   0.000000   0.000000   0.000000
    20  H    0.000000   0.000000   0.000000   0.000000   0.000000   0.000000
    21  H    0.000000   0.000000   0.000000   0.000000   0.000000   0.000000
    22  H    0.000000   0.000000   0.000000   0.000000   0.000000   0.000000
    23  H    0.000000   0.000000   0.000000   0.000000   0.000000   0.000000
    24  H    0.000000   0.000000   0.000000   0.000000   0.000000   0.000000
               7          8          9         10         11         12
     1  N    0.000000   0.000000   0.000000   0.000000   0.000000   0.000000
     2  C    0.000000   0.000000   0.000000   0.000000   0.000000   0.000000
     3  P    0.000000   0.000000   0.000000   0.000000   0.000000   0.000000
     4  O    0.000000   0.000000   0.000000   0.000000   0.000000   0.000000
     5  O    0.000000   0.000000   0.000000   0.000000   0.000000   0.000000
     6  O    0.000000   0.000000   0.000000   0.000000   0.000000   0.000000
     7  Zn   0.000000   0.000000   0.000000   0.000000   0.000000   0.000000
     8  H    0.000000   0.000000   0.000000   0.000000   0.000000   0.000000
     9  H    0.000000   0.000000   0.000000   0.000000   0.000000   0.000000
    10  H    0.000000   0.000000   0.000000   0.000000   0.000000   0.000000
    11  H    0.000000   0.000000   0.000000   0.000000   0.000000   0.000000
    12  H    0.000000   0.000000   0.000000   0.000000   0.000000   0.000000
    13  N    0.000000   0.000000   0.000000   0.000000   0.000000   0.000000
    14  C    0.000000   0.000000   0.000000   0.000000   0.000000   0.000000
    15  P    0.000000   0.000000   0.000000   0.000000   0.000000   0.000000
    16  O    0.000000   0.000000   0.000000   0.000000   0.000000   0.000000
    17  O    0.000000   0.000000   0.000000   0.000000   0.000000   0.000000
    18  O    0.000000   0.000000   0.000000   0.000000   0.000000   0.000000
    19  H    0.000000   0.000000   0.000000   0.000000   0.000000   0.000000
    20  H    0.000000   0.000000   0.000000   0.000000   0.000000   0.000000
    21  H    0.000000   0.000000   0.000000   0.000000   0.000000   0.000000
    22  H    0.000000   0.000000   0.000000   0.000000   0.000000   0.000000
    23  H    0.000000   0.000000   0.000000   0.000000   0.000000   0.000000
    24  H    0.000000   0.000000   0.000000   0.000000   0.000000   0.000000
              13         14         15         16         17         18
     1  N    0.000000   0.000000   0.000000   0.000000   0.000000   0.000000
     2  C    0.000000   0.000000   0.000000   0.000000   0.000000   0.000000
     3  P    0.000000   0.000000   0.000000   0.000000   0.000000   0.000000
     4  O    0.000000   0.000000   0.000000   0.000000   0.000000   0.000000
     5  O    0.000000   0.000000   0.000000   0.000000   0.000000   0.000000
     6  O    0.000000   0.000000   0.000000   0.000000   0.000000   0.000000
     7  Zn   0.000000   0.000000   0.000000   0.000000   0.000000   0.000000
     8  H    0.000000   0.000000   0.000000   0.000000   0.000000   0.000000
     9  H    0.000000   0.000000   0.000000   0.000000   0.000000   0.000000
    10  H    0.000000   0.000000   0.000000   0.000000   0.000000   0.000000
    11  H    0.000000   0.000000   0.000000   0.000000   0.000000   0.000000
    12  H    0.000000   0.000000   0.000000   0.000000   0.000000   0.000000
    13  N    0.000000   0.000000   0.000000   0.000000   0.000000   0.000000
    14  C    0.000000   0.000000   0.000000   0.000000   0.000000   0.000000
    15  P    0.000000   0.000000   0.000000   0.000000   0.000000   0.000000
    16  O    0.000000   0.000000   0.000000   0.000000   0.000000   0.000000
    17  O    0.000000   0.000000   0.000000   0.000000   0.000000   0.000000
    18  O    0.000000   0.000000   0.000000   0.000000   0.000000   0.000000
    19  H    0.000000   0.000000   0.000000   0.000000   0.000000   0.000000
    20  H    0.000000   0.000000   0.000000   0.000000   0.000000   0.000000
    21  H    0.000000   0.000000   0.000000   0.000000   0.000000   0.000000
    22  H    0.000000   0.000000   0.000000   0.000000   0.000000   0.000000
    23  H    0.000000   0.000000   0.000000   0.000000   0.000000   0.000000
    24  H    0.000000   0.000000   0.000000   0.000000   0.000000   0.000000
              19         20         21         22         23         24
     1  N    0.000000   0.000000   0.000000   0.000000   0.000000   0.000000
     2  C    0.000000   0.000000   0.000000   0.000000   0.000000   0.000000
     3  P    0.000000   0.000000   0.000000   0.000000   0.000000   0.000000
     4  O    0.000000   0.000000   0.000000   0.000000   0.000000   0.000000
     5  O    0.000000   0.000000   0.000000   0.000000   0.000000   0.000000
     6  O    0.000000   0.000000   0.000000   0.000000   0.000000   0.000000
     7  Zn   0.000000   0.000000   0.000000   0.000000   0.000000   0.000000
     8  H    0.000000   0.000000   0.000000   0.000000   0.000000   0.000000
     9  H    0.000000   0.000000   0.000000   0.000000   0.000000   0.000000
    10  H    0.000000   0.000000   0.000000   0.000000   0.000000   0.000000
    11  H    0.000000   0.000000   0.000000   0.000000   0.000000   0.000000
    12  H    0.000000   0.000000   0.000000   0.000000   0.000000   0.000000
    13  N    0.000000   0.000000   0.000000   0.000000   0.000000   0.000000
    14  C    0.000000   0.000000   0.000000   0.000000   0.000000   0.000000
    15  P    0.000000   0.000000   0.000000   0.000000   0.000000   0.000000
    16  O    0.000000   0.000000   0.000000   0.000000   0.000000   0.000000
    17  O    0.000000   0.000000   0.000000   0.000000   0.000000   0.000000
    18  O    0.000000   0.000000   0.000000   0.000000   0.000000   0.000000
    19  H    0.000000   0.000000   0.000000   0.000000   0.000000   0.000000
    20  H    0.000000   0.000000   0.000000   0.000000   0.000000   0.000000
    21  H    0.000000   0.000000   0.000000   0.000000   0.000000   0.000000
    22  H    0.000000   0.000000   0.000000   0.000000   0.000000   0.000000
    23  H    0.000000   0.000000   0.000000   0.000000   0.000000   0.000000
    24  H    0.000000   0.000000   0.000000   0.000000   0.000000   0.000000
 Mulliken charges and spin densities:
               1          2
     1  N   -0.366796   0.000000
     2  C   -0.232875   0.000000
     3  P    0.803572   0.000000
     4  O   -0.575821   0.000000
     5  O   -0.487506   0.000000
     6  O   -0.502070   0.000000
     7  Zn   0.425998   0.000000
     8  H    0.378773   0.000000
     9  H    0.293794   0.000000
    10  H    0.192040   0.000000
    11  H    0.173548   0.000000
    12  H    0.292144   0.000000
    13  N   -0.378095   0.000000
    14  C   -0.230070   0.000000
    15  P    0.826656   0.000000
    16  O   -0.461900   0.000000
    17  O   -0.453603   0.000000
    18  O   -0.486488   0.000000
    19  H    0.387991   0.000000
    20  H    0.299913   0.000000
    21  H    0.210336   0.000000
    22  H    0.182897   0.000000
    23  H    0.293717   0.000000
    24  H    0.413843   0.000000
 Sum of Mulliken charges =   1.00000   0.00000
 Mulliken charges and spin densities with hydrogens summed into heavy atoms:
               1          2
     1  N    0.219143   0.000000
     2  C    0.132713   0.000000
     3  P    0.803572   0.000000
     4  O   -0.575821   0.000000
     5  O   -0.487506   0.000000
     6  O   -0.123297   0.000000
     7  Zn   0.425998   0.000000
    13  N    0.215535   0.000000
    14  C    0.163164   0.000000
    15  P    0.826656   0.000000
    16  O   -0.048056   0.000000
    17  O   -0.453603   0.000000
    18  O   -0.098496   0.000000
 Electronic spatial extent (au):  <R**2>=           3121.8706
 Charge=              1.0000 electrons
 Dipole moment (field-independent basis, Debye):
    X=              1.4936    Y=             -6.4449    Z=             -0.3417  Tot=              6.6245
 Quadrupole moment (field-independent basis, Debye-Ang):
   XX=            -60.4626   YY=            -73.5251   ZZ=            -80.9385
   XY=              1.3782   XZ=              8.8699   YZ=             -0.5016
 Traceless Quadrupole moment (field-independent basis, Debye-Ang):
   XX=             11.1795   YY=             -1.8830   ZZ=             -9.2964
   XY=              1.3782   XZ=              8.8699   YZ=             -0.5016
 Octapole moment (field-independent basis, Debye-Ang**2):
  XXX=              8.4367  YYY=            -79.8748  ZZZ=             -1.8861  XYY=             -1.5396
  XXY=              2.6143  XXZ=             -9.6620  XZZ=              6.7676  YZZ=            -16.7993
  YYZ=              2.3928  XYZ=            -44.0563
 Hexadecapole moment (field-independent basis, Debye-Ang**3):
 XXXX=          -1907.0544 YYYY=           -839.2057 ZZZZ=           -442.8218 XXXY=              7.9227
 XXXZ=            -42.3262 YYYX=             -4.6642 YYYZ=              4.3114 ZZZX=             12.2992
 ZZZY=             -3.9205 XXYY=           -339.4029 XXZZ=           -348.8564 YYZZ=           -173.7474
 XXYZ=             -7.4554 YYXZ=            -30.3256 ZZXY=              7.6146
 N-N= 1.752223227455D+03 E-N=-1.088280999247D+04  KE= 3.099187570957D+03
                          Isotropic Fermi Contact Couplings
        Atom                 a.u.       MegaHertz       Gauss      10(-4) cm-1
     1  N(14)              0.00000       0.00000       0.00000       0.00000
     2  C(13)              0.00000       0.00000       0.00000       0.00000
     3  P(31)              0.00000       0.00000       0.00000       0.00000
     4  O(17)              0.00000      -0.00000      -0.00000      -0.00000
     5  O(17)              0.00000      -0.00000      -0.00000      -0.00000
     6  O(17)              0.00000      -0.00000      -0.00000      -0.00000
     7  Zn(67)             0.00000       0.00000       0.00000       0.00000
     8  H(1)               0.00000       0.00000       0.00000       0.00000
     9  H(1)               0.00000       0.00000       0.00000       0.00000
    10  H(1)               0.00000       0.00000       0.00000       0.00000
    11  H(1)               0.00000       0.00000       0.00000       0.00000
    12  H(1)               0.00000       0.00000       0.00000       0.00000
    13  N(14)              0.00000       0.00000       0.00000       0.00000
    14  C(13)              0.00000       0.00000       0.00000       0.00000
    15  P(31)              0.00000       0.00000       0.00000       0.00000
    16  O(17)              0.00000      -0.00000      -0.00000      -0.00000
    17  O(17)              0.00000      -0.00000      -0.00000      -0.00000
    18  O(17)              0.00000      -0.00000      -0.00000      -0.00000
    19  H(1)               0.00000       0.00000       0.00000       0.00000
    20  H(1)               0.00000       0.00000       0.00000       0.00000
    21  H(1)               0.00000       0.00000       0.00000       0.00000
    22  H(1)               0.00000       0.00000       0.00000       0.00000
    23  H(1)               0.00000       0.00000       0.00000       0.00000
    24  H(1)               0.00000       0.00000       0.00000       0.00000
 --------------------------------------------------------
       Center         ----  Spin Dipole Couplings  ----
                      3XX-RR        3YY-RR        3ZZ-RR
 --------------------------------------------------------
     1   Atom        0.000000      0.000000      0.000000
     2   Atom        0.000000      0.000000      0.000000
     3   Atom        0.000000      0.000000      0.000000
     4   Atom        0.000000      0.000000      0.000000
     5   Atom        0.000000      0.000000      0.000000
     6   Atom        0.000000      0.000000      0.000000
     7   Atom        0.000000      0.000000      0.000000
     8   Atom        0.000000      0.000000      0.000000
     9   Atom        0.000000      0.000000      0.000000
    10   Atom        0.000000      0.000000      0.000000
    11   Atom        0.000000      0.000000      0.000000
    12   Atom        0.000000      0.000000      0.000000
    13   Atom        0.000000      0.000000      0.000000
    14   Atom        0.000000      0.000000      0.000000
    15   Atom        0.000000      0.000000      0.000000
    16   Atom        0.000000      0.000000      0.000000
    17   Atom        0.000000      0.000000      0.000000
    18   Atom        0.000000      0.000000      0.000000
    19   Atom        0.000000      0.000000      0.000000
    20   Atom        0.000000      0.000000      0.000000
    21   Atom        0.000000      0.000000      0.000000
    22   Atom        0.000000      0.000000      0.000000
    23   Atom        0.000000      0.000000      0.000000
    24   Atom        0.000000      0.000000      0.000000
 --------------------------------------------------------
                        XY            XZ            YZ
 --------------------------------------------------------
     1   Atom        0.000000      0.000000      0.000000
     2   Atom        0.000000      0.000000      0.000000
     3   Atom        0.000000      0.000000      0.000000
     4   Atom        0.000000      0.000000      0.000000
     5   Atom        0.000000      0.000000      0.000000
     6   Atom        0.000000      0.000000      0.000000
     7   Atom        0.000000      0.000000      0.000000
     8   Atom        0.000000      0.000000      0.000000
     9   Atom        0.000000      0.000000      0.000000
    10   Atom        0.000000      0.000000      0.000000
    11   Atom        0.000000      0.000000      0.000000
    12   Atom        0.000000      0.000000      0.000000
    13   Atom        0.000000      0.000000      0.000000
    14   Atom        0.000000      0.000000      0.000000
    15   Atom        0.000000      0.000000      0.000000
    16   Atom        0.000000      0.000000      0.000000
    17   Atom        0.000000      0.000000      0.000000
    18   Atom        0.000000      0.000000      0.000000
    19   Atom        0.000000      0.000000      0.000000
    20   Atom        0.000000      0.000000      0.000000
    21   Atom        0.000000      0.000000      0.000000
    22   Atom        0.000000      0.000000      0.000000
    23   Atom        0.000000      0.000000      0.000000
    24   Atom        0.000000      0.000000      0.000000
 --------------------------------------------------------


 ---------------------------------------------------------------------------------
              Anisotropic Spin Dipole Couplings in Principal Axis System
 ---------------------------------------------------------------------------------

       Atom             a.u.   MegaHertz   Gauss  10(-4) cm-1        Axes

              Baa     0.0000     0.000     0.000     0.000  1.0000  0.0000  0.0000
     1 N(14)  Bbb     0.0000     0.000     0.000     0.000 -0.0000  1.0000  0.0000
              Bcc     0.0000     0.000     0.000     0.000  0.0000  0.0000  1.0000
 
              Baa     0.0000     0.000     0.000     0.000  1.0000  0.0000  0.0000
     2 C(13)  Bbb     0.0000     0.000     0.000     0.000 -0.0000  1.0000  0.0000
              Bcc     0.0000     0.000     0.000     0.000  0.0000  0.0000  1.0000
 
              Baa     0.0000     0.000     0.000     0.000  1.0000  0.0000  0.0000
     3 P(31)  Bbb     0.0000     0.000     0.000     0.000 -0.0000  1.0000  0.0000
              Bcc     0.0000     0.000     0.000     0.000  0.0000  0.0000  1.0000
 
              Baa     0.0000    -0.000    -0.000    -0.000  1.0000  0.0000  0.0000
     4 O(17)  Bbb     0.0000    -0.000    -0.000    -0.000 -0.0000  1.0000  0.0000
              Bcc     0.0000    -0.000    -0.000    -0.000  0.0000  0.0000  1.0000
 
              Baa     0.0000    -0.000    -0.000    -0.000  1.0000  0.0000  0.0000
     5 O(17)  Bbb     0.0000    -0.000    -0.000    -0.000 -0.0000  1.0000  0.0000
              Bcc     0.0000    -0.000    -0.000    -0.000  0.0000  0.0000  1.0000
 
              Baa     0.0000    -0.000    -0.000    -0.000  1.0000  0.0000  0.0000
     6 O(17)  Bbb     0.0000    -0.000    -0.000    -0.000 -0.0000  1.0000  0.0000
              Bcc     0.0000    -0.000    -0.000    -0.000  0.0000  0.0000  1.0000
 
              Baa     0.0000     0.000     0.000     0.000  1.0000  0.0000  0.0000
     7 Zn(67) Bbb     0.0000     0.000     0.000     0.000 -0.0000  1.0000  0.0000
              Bcc     0.0000     0.000     0.000     0.000  0.0000  0.0000  1.0000
 
              Baa     0.0000     0.000     0.000     0.000  1.0000  0.0000  0.0000
     8 H(1)   Bbb     0.0000     0.000     0.000     0.000 -0.0000  1.0000  0.0000
              Bcc     0.0000     0.000     0.000     0.000  0.0000  0.0000  1.0000
 
              Baa     0.0000     0.000     0.000     0.000  1.0000  0.0000  0.0000
     9 H(1)   Bbb     0.0000     0.000     0.000     0.000 -0.0000  1.0000  0.0000
              Bcc     0.0000     0.000     0.000     0.000  0.0000  0.0000  1.0000
 
              Baa     0.0000     0.000     0.000     0.000  1.0000  0.0000  0.0000
    10 H(1)   Bbb     0.0000     0.000     0.000     0.000 -0.0000  1.0000  0.0000
              Bcc     0.0000     0.000     0.000     0.000  0.0000  0.0000  1.0000
 
              Baa     0.0000     0.000     0.000     0.000  1.0000  0.0000  0.0000
    11 H(1)   Bbb     0.0000     0.000     0.000     0.000 -0.0000  1.0000  0.0000
              Bcc     0.0000     0.000     0.000     0.000  0.0000  0.0000  1.0000
 
              Baa     0.0000     0.000     0.000     0.000  1.0000  0.0000  0.0000
    12 H(1)   Bbb     0.0000     0.000     0.000     0.000 -0.0000  1.0000  0.0000
              Bcc     0.0000     0.000     0.000     0.000  0.0000  0.0000  1.0000
 
              Baa     0.0000     0.000     0.000     0.000  1.0000  0.0000  0.0000
    13 N(14)  Bbb     0.0000     0.000     0.000     0.000 -0.0000  1.0000  0.0000
              Bcc     0.0000     0.000     0.000     0.000  0.0000  0.0000  1.0000
 
              Baa     0.0000     0.000     0.000     0.000  1.0000  0.0000  0.0000
    14 C(13)  Bbb     0.0000     0.000     0.000     0.000 -0.0000  1.0000  0.0000
              Bcc     0.0000     0.000     0.000     0.000  0.0000  0.0000  1.0000
 
              Baa     0.0000     0.000     0.000     0.000  1.0000  0.0000  0.0000
    15 P(31)  Bbb     0.0000     0.000     0.000     0.000 -0.0000  1.0000  0.0000
              Bcc     0.0000     0.000     0.000     0.000  0.0000  0.0000  1.0000
 
              Baa     0.0000    -0.000    -0.000    -0.000  1.0000  0.0000  0.0000
    16 O(17)  Bbb     0.0000    -0.000    -0.000    -0.000 -0.0000  1.0000  0.0000
              Bcc     0.0000    -0.000    -0.000    -0.000  0.0000  0.0000  1.0000
 
              Baa     0.0000    -0.000    -0.000    -0.000  1.0000  0.0000  0.0000
    17 O(17)  Bbb     0.0000    -0.000    -0.000    -0.000 -0.0000  1.0000  0.0000
              Bcc     0.0000    -0.000    -0.000    -0.000  0.0000  0.0000  1.0000
 
              Baa     0.0000    -0.000    -0.000    -0.000  1.0000  0.0000  0.0000
    18 O(17)  Bbb     0.0000    -0.000    -0.000    -0.000 -0.0000  1.0000  0.0000
              Bcc     0.0000    -0.000    -0.000    -0.000  0.0000  0.0000  1.0000
 
              Baa     0.0000     0.000     0.000     0.000  1.0000  0.0000  0.0000
[...]
 -0.00721466,-0.00617227,0.00500308,-0.00876259,0.00261514,0.00092985,0
 .00218195,-0.00084559,-0.00162678,-0.00037168,-0.00040663,0.00011709,0
 .00010537,0.00016817,0.00063949,0.00002068,-0.00051005,-0.00013800,0.0
 0019407,0.00008561,0.00018224,0.00266510,0.00391442,-0.00391223,0.0042
 1158,0.00629126,0.00642561,-0.13676066,0.11884977,0.02246356,0.4539489
 7,-0.00177263,0.00117072,0.00085280,0.00026524,0.00020848,-0.00055803,
 0.00018851,-0.01798877,0.00488418,0.02276326,0.01719795,-0.00007860,-0
 .00507780,0.00661401,-0.00130527,0.00197690,0.00335525,-0.00153126,0.0
 1010392,0.00194896,-0.00425429,-0.00086938,-0.00002546,0.00047059,0.00
 045519,0.00038848,0.00011164,0.00005858,-0.00023929,-0.00017809,-0.000
 08878,0.00028257,0.00007192,-0.00014810,0.00015476,-0.00024801,-0.0015
 4152,-0.00373067,0.00424477,0.00943008,-0.00601168,-0.00706116,0.12177
 256,-0.34586720,-0.05533059,-0.16076254,0.40441330,-0.00074907,-0.0002
 2062,0.00061753,0.00019696,0.00004502,0.00011800,-0.00163145,0.0000488
 4,-0.00205275,-0.00031463,-0.00007521,0.00743356,0.00120219,0.00084914
 ,0.00192567,-0.00038930,-0.00024324,0.00041741,0.00227828,0.00163376,-
 0.00601742,-0.00001327,-0.00008075,-0.00012621,0.00028568,0.00013835,0
 .00002408,0.00020694,0.00010147,0.00013485,-0.00003125,0.00001450,0.00
 008468,-0.00019036,0.00005512,-0.00023671,-0.00021099,0.00273256,0.000
 53699,-0.00570973,0.00900176,0.00419301,0.02271614,-0.05242818,-0.0697
 0281,-0.01053661,0.07681824,0.06899318,-0.00703455,-0.00361000,0.00163
 946,0.00019502,-0.00053646,-0.00026881,0.00562991,-0.00906605,-0.00036
 121,0.00355562,0.00552016,0.00167802,-0.00656119,0.00407998,0.00640218
 ,-0.00206353,0.00195546,0.00067116,-0.02127023,-0.01398349,0.00968904,
 0.00015972,-0.00045228,-0.00021099,0.00028276,0.00054415,0.00047464,-0
 .00052433,-0.00019225,0.00068639,-0.00021303,-0.00023275,0.00029006,-0
 .00101069,0.00070760,-0.00149375,0.00511832,-0.00039789,0.00581217,0.0
 0231107,-0.01469780,-0.01025255,-0.19001219,-0.13167069,-0.13797812,0.
 01728758,0.00022707,-0.00027155,0.22760069,-0.00748425,-0.00169105,0.0
 0205309,0.00082375,-0.00173940,0.00025149,-0.00175514,-0.01384076,0.00
 267056,0.00978779,0.00583185,-0.00134884,-0.00389661,0.00763388,0.0017
 0909,0.00041033,0.00249179,-0.00026177,-0.01234146,-0.02158303,0.00990
 454,-0.00048423,-0.00021294,0.00019504,0.00071760,0.00043850,0.0004700
 3,-0.00002945,-0.00024529,-0.00031440,-0.00008214,0.00071691,-0.000067
 52,-0.00099922,0.00067683,-0.00140931,0.00423911,-0.00157777,0.0153845
 0,-0.00386022,-0.00165259,0.00347019,-0.13175564,-0.21076183,-0.139140
 69,-0.00650063,-0.02649373,-0.02881696,0.18013034,0.25441371,-0.002189
 44,-0.00043281,0.00146037,0.00037872,0.00005260,0.00026382,-0.00276419
 ,0.00134389,-0.00778624,0.00235519,0.00077617,0.00223516,0.00654426,-0
 .00203895,0.00194216,0.00081947,-0.00019215,0.00074604,0.02050039,0.02
 330385,-0.03144138,-0.00004087,0.00004497,0.00009369,0.00136758,0.0004
 9700,-0.00006452,0.00011158,-0.00006098,0.00033332,-0.00018482,-0.0001
 4797,0.00041819,-0.00070987,0.00008243,-0.00051553,-0.00008593,0.00282
 576,-0.00336959,-0.01665498,-0.01518439,-0.01152858,-0.14622273,-0.150
 58216,-0.23633862,-0.00333199,-0.01129337,0.00621056,0.14274295,0.1447
 4643,0.27378072,-0.00139392,-0.00074473,-0.00005220,-0.00009881,-0.000
 35256,-0.00004265,0.00453494,0.00154096,-0.00096531,-0.00646977,-0.001
 53431,-0.00016021,-0.00214181,-0.00006315,0.00088804,-0.00210617,0.000
 05638,0.00093807,0.00348045,0.00488348,-0.00395323,0.00045891,-0.00033
 084,-0.00029381,0.00011117,0.00018721,0.00024845,0.00019361,-0.0000256
 5,0.00029457,-0.00007846,-0.00008943,0.00000180,-0.00010448,0.00026015
 ,-0.00023268,0.00068576,-0.00163129,0.00360675,-0.00662072,0.00057738,
 -0.00006024,-0.30564787,-0.03629041,0.08270572,-0.03350516,0.00933724,
 0.00903246,-0.02180853,-0.01440000,0.00583737,0.38883337,-0.00100956,0
 .00018424,0.00022271,0.00006934,-0.00008360,-0.00019780,0.00070352,-0.
 00602051,0.00141054,0.00564341,0.00346181,0.00012651,-0.00213787,0.002
 43177,-0.00017684,0.00002258,0.00113350,-0.00025410,0.00364457,0.00141
 951,-0.00159486,-0.00016183,-0.00010558,0.00009179,0.00015617,0.000162
 54,0.00010368,0.00004532,-0.00008785,0.00002942,-0.00005207,0.00006511
 ,0.00002301,-0.00007316,0.00010512,-0.00014276,-0.00126900,-0.00135784
 ,0.00213027,-0.01609732,0.00286375,0.00924985,-0.06566749,-0.07732294,
 0.03494476,0.03675551,0.00056754,-0.00843166,-0.02178943,-0.00010983,0
 .00076737,0.11892371,0.41535660,-0.00023320,-0.00026489,0.00045262,0.0
 0024798,0.00004926,0.00014263,-0.00139029,-0.00094938,-0.00068860,0.00
 314402,0.00095910,0.00041738,0.00081003,-0.00004243,0.00108743,0.00071
 238,0.00009628,-0.00016870,-0.00121618,0.00138050,-0.00374455,-0.00016
 796,0.00010912,0.00007058,0.00015012,0.00002730,-0.00007977,0.00003505
 ,0.00002208,-0.00003556,0.00000797,0.00001047,0.00003773,-0.00014940,-
 0.00000748,-0.00013676,0.00259450,0.00266798,-0.00294974,0.01727094,0.
 00240824,-0.00395974,0.09858062,0.03119121,-0.09381853,0.01677629,-0.0
 0556503,0.00700921,-0.00922608,-0.00879393,0.01435713,-0.16333190,-0.2
 6741602,0.25044429,0.00009328,0.00013999,0.00004746,0.00004760,0.00001
 856,-0.00000519,-0.00094479,-0.00105324,0.00040216,0.00176763,0.000653
 35,-0.00009250,0.00021800,0.00033545,-0.00018411,0.00048177,0.00011104
 ,-0.00023787,-0.00039135,-0.00063450,0.00038185,-0.00012806,0.00005918
 ,0.00008064,-0.00002255,-0.00002623,-0.00002598,-0.00005779,-0.0000210
 6,-0.00005315,0.00000959,0.00003072,0.00000162,-0.00001245,-0.00003919
 ,0.00001262,-0.00021385,-0.00000717,-0.00003793,-0.00191281,0.00050901
 ,0.00023034,-0.01769251,-0.02866310,0.02318634,0.00470219,0.00113873,-
 0.00279232,-0.00120711,0.00156444,-0.00143023,-0.02966386,-0.04769697,
 0.03938021,0.04716402,0.00024727,-0.00000929,-0.00001388,0.00000813,0.
 00005768,0.00002253,-0.00057759,0.00061982,-0.00007195,0.00031172,-0.0
 0026562,0.00004855,0.00053236,-0.00035867,-0.00003140,0.00026295,-0.00
 016619,-0.00009891,-0.00099089,-0.00041521,0.00039400,-0.00003150,0.00
 007104,0.00002370,-0.00006042,-0.00003460,-0.00002614,-0.00003214,0.00
 002229,-0.00002171,0.00001485,-0.00000586,-0.00000081,0.00000543,-0.00
 003696,0.00002985,0.00026871,0.00052769,-0.00083537,0.00144859,0.00175
 931,-0.00089393,-0.00192811,-0.00105810,0.00397538,0.00304169,-0.00367
 892,-0.00107635,0.00204254,0.00130979,-0.00069103,-0.07803364,-0.33817
 857,0.24109381,0.07388524,0.33963088,-0.00019487,-0.00011125,-0.000074
 33,-0.00004757,-0.00007661,-0.00000915,0.00079756,0.00067314,-0.000101
 75,-0.00158236,-0.00044826,-0.00014034,-0.00025362,-0.00016336,0.00006
 981,-0.00034962,-0.00008408,0.00012905,0.00031676,0.00056024,-0.000431
 14,0.00009534,-0.00004267,-0.00003538,-0.00000789,0.00000633,0.0000585
 6,0.00001389,-0.00001346,0.00006578,-0.00001450,-0.00002192,-0.0000024
 2,-0.00001243,0.00003151,-0.00001872,0.00025587,0.00020359,-0.00071308
 ,0.00275673,0.00087048,0.00008933,0.00632564,0.00962828,-0.00716166,-0
 .00595727,0.00051381,0.00044239,-0.00519661,-0.00199207,-0.00105650,0.
 05924908,0.23164321,-0.16846059,-0.05888276,-0.24166414,0.17669007,-0.
 00023758,0.00014000,0.00033546,0.00005768,-0.00014358,0.00015090,-0.00
 044267,0.00114926,-0.00116293,-0.00042743,-0.00056839,0.00036664,0.000
 48247,-0.00115334,0.00169962,0.00013697,-0.00022293,0.00013781,0.00300
 630,0.00206179,-0.00782632,-0.00000250,0.00005808,0.00000085,0.0001529
 9,-0.00001621,0.00002810,0.00003839,0.00002501,0.00005475,-0.00001472,
 0.00005065,0.00002635,-0.00009552,0.00003230,-0.00018125,-0.04430698,-
 0.01347461,0.04960465,-0.00449134,-0.00762102,0.00925923,-0.00142948,-
 0.00173837,-0.00263202,-0.00054634,0.00086270,0.00036010,0.00060277,0.
 00329729,-0.00144051,0.00031104,0.00022001,0.00020337,-0.00002414,-0.0
 0005483,0.00005165,0.05184152,-0.00012345,0.00003607,-0.00004146,-0.00
 009845,0.00006356,-0.00010880,0.00050501,-0.00089444,0.00059394,0.0003
 0558,0.00039105,-0.00016382,-0.00066599,0.00054347,-0.00070298,-0.0002
 0574,0.00018363,-0.00002242,0.00103885,-0.00039185,0.00058297,0.000012
 77,-0.00003669,-0.00000514,0.00000755,0.00002715,0.00001708,-0.0000028
 9,-0.00002787,-0.00001859,-0.00000440,-0.00000138,-0.00002716,-0.00000
 527,0.00007446,-0.00003130,-0.02536522,-0.10609852,0.12481663,-0.00596
 354,-0.01703749,0.02918354,-0.00298987,-0.00307148,-0.00362751,0.00145
 793,-0.00104844,0.00060874,0.00035776,0.00140435,-0.00012140,-0.000550
 99,-0.00061707,0.00126316,-0.00010172,0.00019180,0.00023554,0.02811032
 ,0.11542109,0.00008710,-0.00012401,0.00015450,0.00005151,0.00007674,0.
 00002644,-0.00051967,0.00044038,-0.00022360,0.00012319,-0.00015424,0.0
 0004837,0.00059926,-0.00063345,-0.00001861,0.00028400,-0.00014390,-0.0
 0011393,0.00033237,0.00194181,-0.00419917,-0.00001755,0.00003694,0.000
 05422,0.00003940,-0.00002408,-0.00002057,0.00000454,-0.00000385,0.0000
 0078,0.00000502,-0.00003273,0.00002023,-0.00006658,-0.00000985,-0.0000
 1147,0.07989675,0.12806654,-0.35776484,-0.00337805,-0.00511739,0.00669
 056,-0.00151410,-0.00062922,-0.00224246,0.00055008,-0.00046223,0.00051
 434,0.00029063,0.00131582,0.00029217,-0.00032364,-0.00033262,0.0007980
 9,-0.00003431,0.00005788,0.00007235,-0.07487917,-0.13055439,0.36901630
 ,-0.00004411,0.00010351,0.00011625,0.00010360,-0.00012329,0.00010047,-
 0.00093247,0.00052179,-0.00079321,0.00001394,-0.00020411,0.00033051,-0
 .00085746,-0.00004336,0.00074615,0.00020205,-0.00007007,0.00003388,0.0
 0099118,-0.00077568,-0.00072566,-0.00005234,0.00004263,0.00000367,0.00
 004979,0.,0.00000554,-0.00000526,0.00001489,0.00002147,-0.00000201,0.0
 0005123,0.00004145,-0.00002101,-0.00002203,-0.00003022,0.00723190,-0.0
 0915952,-0.01146198,-0.12745893,0.06825249,0.10859943,0.00115981,-0.00
 167492,-0.00245442,-0.00007620,-0.00028413,-0.00006725,-0.00163707,0.0
 0035654,-0.00096300,0.00026457,0.00017194,-0.00005183,0.00033052,0.000
 01332,0.00006487,0.00121401,0.00078631,-0.00011329,0.13251522,0.000067
 65,0.00007143,-0.00006264,-0.00002226,-0.00009782,0.00005207,-0.000002
 72,0.00078600,0.00002724,-0.00020764,-0.00031805,-0.00018407,0.0003479
 4,-0.00039599,0.00020131,0.00004214,-0.00013811,-0.00003130,0.00025640
 ,-0.00096612,0.00024533,0.00003592,0.00002038,0.00002473,-0.00001966,-
 0.00002368,0.00000405,-0.00000411,0.00001911,0.00000097,0.00000371,0.0
 0001980,-0.00000028,0.00002261,-0.00001251,0.00001217,0.01527889,-0.02
 290579,-0.02405782,0.05965679,-0.09387151,-0.07887534,-0.00848582,0.00
 973621,0.00531485,0.00037020,-0.00069889,-0.00076354,0.00309609,-0.000
 21393,0.00181962,-0.00143291,-0.00319290,0.00246065,-0.00033755,0.0000
 2368,0.00029313,0.00122793,0.00109709,-0.00070457,-0.06700236,0.115545
 67,-0.00004558,0.00006049,0.00012630,0.00004623,-0.00007985,0.00008418
 ,-0.00110094,0.00030309,-0.00066228,0.00064105,0.00006737,0.00019952,0
 .00109507,0.00022068,0.00065595,0.00037806,-0.00011544,-0.00012028,0.0
 0044836,-0.00079276,-0.00135396,-0.00003947,0.00004112,0.00007919,0.00
 004966,0.00001106,-0.00000232,0.00001129,0.00001381,0.00002686,-0.0000
 0431,0.00002551,0.00003052,-0.00003836,-0.00002354,-0.00003001,0.00000
 213,0.00121980,0.00016470,0.10959197,-0.09399893,-0.18719708,0.0130544
 9,-0.01164099,-0.01522186,-0.00012468,-0.00120783,0.00328407,-0.003635
 88,0.00129102,-0.00200657,0.00103034,0.00324044,-0.00247265,0.00046570
 ,-0.00018197,-0.00035566,-0.00021077,0.00017816,0.00110235,-0.11427142
 ,0.09441776,0.19508022,0.00007296,0.00002179,0.00001834,-0.00003641,0.
 00004762,-0.00003538,0.00021389,-0.00045490,0.00027073,0.00011093,0.00
 015195,-0.00005520,-0.00034118,0.00012386,-0.00029898,-0.00006352,0.00
 007766,0.00000834,0.00021172,-0.00057709,0.00064034,-0.00000315,-0.000
 01461,-0.00001232,-0.00002168,0.00000231,0.00000248,-0.00000870,-0.000
 00589,-0.00001475,0.00000218,0.00000130,-0.00001898,0.00001298,0.00000
 785,0.00000748,-0.00566359,-0.00380545,-0.00238735,-0.29847914,0.00628
 113,-0.07270016,-0.00234240,0.00103431,-0.00083992,0.00022109,-0.00027
 928,-0.00042858,0.00063114,0.00059710,0.00123591,-0.00009247,-0.000888
 31,0.00125822,0.00025620,0.00014458,0.00013923,-0.00048116,-0.00018469
 ,-0.00023948,-0.01272534,0.00053663,-0.00601130,0.31771009,-0.00009265
 ,0.00044918,-0.00012881,-0.00008874,-0.00018606,0.00000615,-0.00053687
 ,-0.00020882,-0.00013696,0.00048768,0.00021209,-0.00000231,0.00044903,
 0.00076425,0.00025826,0.00012400,0.00003818,-0.00003053,0.00036304,-0.
 00398675,0.00152629,-0.00003032,0.00000562,0.00002723,-0.00004555,0.00
 000850,0.00003455,-0.00003979,0.00002428,-0.00001821,-0.00000065,0.000
 10080,-0.00001445,0.00007868,-0.00001341,0.00002364,-0.03663603,-0.010
 91241,-0.01148774,0.01695911,-0.04577167,0.00458160,0.01225595,0.00285
 190,-0.00362947,-0.00053594,-0.00291878,0.00162514,0.00103021,0.001411
 39,0.00329278,-0.00107349,-0.00035698,-0.00012126,0.00013932,0.0000742
 1,0.00006421,-0.00066670,0.00036262,-0.00068458,0.01194556,0.00050101,
 0.00567288,-0.00274008,0.05493182,-0.00011622,0.00002521,-0.00002140,0
 .00000628,-0.00008649,0.00006526,-0.00006820,0.00039981,-0.00043001,-0
 .00017981,-0.00009575,0.00010803,0.00048062,0.00001413,0.00054208,0.00
 001715,-0.00005499,0.00003111,0.00043728,0.00022380,-0.00085958,0.0000
 0850,0.00000382,0.00000195,0.00002394,0.00001982,0.00001515,0.00003402
 ,0.00000651,0.00003248,-0.00001198,0.00001284,0.00002359,-0.00001654,0
 .00000794,-0.00002228,-0.00183014,-0.00094581,-0.00004406,-0.07886122,
 0.00082204,-0.06488515,-0.02228760,-0.00040953,-0.00366713,0.00038858,
 0.00290641,-0.00127751,-0.00047803,-0.00057673,-0.00523325,0.00103203,
 -0.00139124,0.00181120,0.00004503,0.00020167,0.00032606,0.00081072,0.0
 0004729,0.00007738,0.02179418,0.00006303,0.00822511,0.07908991,-0.0009
 3229,0.06510350,0.00033592,-0.00020222,-0.00004018,0.00004168,0.000200
 36,-0.00006776,0.00013802,-0.00039496,0.00101375,0.00019159,0.00015481
 ,-0.00020347,-0.00113680,0.00120525,-0.00082743,-0.00011662,0.00012925
 ,-0.00012106,-0.00587286,0.00437500,0.00332637,-0.00004050,-0.00000773
 ,-0.00002133,-0.00006053,0.00000162,-0.00005175,-0.00001241,-0.0000289
 7,-0.00003362,0.00000892,-0.00008356,-0.00000868,0.00001473,-0.0000072
 5,0.00006836,-0.22428892,0.15736066,0.13549406,0.00945529,-0.01204021,
 -0.00942684,0.00171421,0.00129335,-0.00046169,0.00006458,-0.00043020,0
 .00012805,-0.00012294,-0.00131958,-0.00000451,-0.00081693,-0.00014410,
 0.00025550,-0.00001799,0.00004948,0.00003130,-0.00612532,0.00443037,-0
 .00098675,-0.00059351,-0.00359084,-0.00032938,0.00102856,-0.00060930,-
 0.00073604,0.22656693,-0.00010841,-0.00003830,-0.00008446,-0.00005102,
 0.00001990,-0.00006233,0.00049922,-0.00038116,0.00029263,-0.00009655,0
 .00017928,-0.00004984,-0.00073016,0.00079223,-0.00012249,-0.00025418,0
 .00012076,0.00002930,0.00080422,0.00009555,0.00080261,0.00002517,-0.00
 003680,-0.00002559,-0.00002923,0.00007193,0.00000984,0.00001797,-0.000
 00993,0.00001339,-0.00000937,-0.00000777,-0.00001071,0.00001200,0.0000
 5283,0.00000225,0.14261437,-0.17454487,-0.09096737,0.02184376,-0.01996
 565,-0.01442237,0.00095900,-0.00282626,-0.00153141,-0.00010626,0.00024
 816,0.00064498,-0.00044423,0.00092708,0.00010611,0.00008757,0.00039139
 ,-0.00020751,-0.00012217,-0.00008218,0.00008114,-0.01153558,0.00961860
 ,0.00769005,-0.00296838,-0.00495905,0.00104581,-0.00010037,0.00236864,
 -0.00023358,-0.15038571,0.18803066,0.00024679,0.00000451,-0.00018443,-
 0.00003625,0.00009882,-0.00010068,0.00038743,-0.00068205,0.00117178,0.
 00016901,0.00024264,-0.00027596,-0.00168117,0.00162050,-0.00058594,-0.
 00023160,0.00019672,-0.00010909,-0.00434374,0.00267893,0.00368231,-0.0
 0002061,-0.00002751,-0.00001981,-0.00015897,0.00002573,-0.00000665,-0.
 00002264,-0.00001799,-0.00003216,0.00000383,-0.00003471,-0.00001908,0.
 00007148,-0.00000238,0.00009523,0.10634277,-0.07594483,-0.11125085,0.0
 0067261,-0.00282530,-0.00225373,-0.00006326,0.00218301,0.00293938,0.00
 006518,-0.00016374,-0.00067674,0.00091451,-0.00154012,-0.00139143,0.00
 002074,-0.00034480,-0.00033484,0.00007853,0.00004064,-0.00005427,0.025
 30773,-0.02228161,-0.01427267,-0.00074628,-0.00062544,0.00067399,0.000
 36038,0.00032503,0.00017840,-0.12701699,0.09703483,0.12276932,-0.00213
 369,0.00312687,0.00240311,0.00117425,0.00160859,-0.00153879,-0.0122841
 5,-0.05626379,0.01839968,0.04165510,0.03466073,-0.00233780,-0.00862964
 ,0.01595262,-0.00618630,0.01054988,0.00885399,-0.00725825,0.01295146,-
 0.00043225,-0.00396344,-0.00307449,0.00120441,0.00231548,0.00060022,0.
 00071943,-0.00016682,-0.00003616,-0.00022982,-0.00093651,-0.00004739,0
 .00072734,0.00025531,-0.00032698,-0.00007327,-0.00031156,-0.00249143,-
 0.00318778,0.00243150,0.00162367,-0.00212596,-0.00161628,-0.01537836,0
 .05989691,0.01502455,-0.23153768,-0.00732560,-0.01307045,-0.00990922,-
 0.01701574,-0.00587033,0.01167517,-0.00936896,-0.00566036,-0.00278152,
 -0.00056775,0.00240158,0.00078103,-0.00075022,-0.00019126,0.00032911,0
 .00016296,-0.00100225,-0.00021300,-0.00073646,0.00041752,-0.00035509,0
 .00007835,-0.00031945,0.20785891,0.00024906,-0.00012166,-0.00011072,-0
 .00004103,-0.00086853,0.00033603,-0.01132344,-0.00403206,0.00024635,0.
 00544304,-0.01234762,0.00049128,0.00195897,0.00049506,-0.00006866,0.00
 055720,-0.00030366,-0.00033236,-0.00052063,-0.00230272,0.00032935,-0.0
 0004427,0.00022489,0.00019014,-0.00001093,-0.00012300,-0.00001549,-0.0
 0008357,0.00002966,-0.00008971,0.00001048,0.00007878,-0.00003555,-0.00
 001969,-0.00006769,-0.00000235,-0.00019933,-0.00018942,0.00026650,-0.0
 0056791,-0.00168772,-0.00070909,0.03162931,-0.01617310,-0.00104038,0.0
 0358322,-0.02784834,-0.00218109,-0.00261801,0.00286607,0.00108623,0.00
 069933,-0.00070923,-0.00037123,0.00011788,0.00000197,-0.00018680,-0.00
 003981,-0.00018970,-0.00001507,0.00006762,-0.00002604,0.00023233,0.000
 02261,0.00025041,-0.00002791,0.00004447,-0.00006502,0.00003912,-0.0289
 1459,0.06310866,-0.00001989,-0.00005527,-0.00038674,0.00006507,-0.0005
 9018,0.00020608,0.00348294,-0.00163490,0.00153104,-0.00088139,0.001304
 36,-0.01304641,-0.00130819,-0.00011031,-0.00143464,0.00204112,0.001529
 62,-0.00073107,-0.00041952,0.00003105,0.00111057,-0.00026000,0.0002587
 6,0.00030017,-0.00006753,-0.00009118,-0.00000544,-0.00018645,-0.000232
 58,-0.00020144,0.00000416,0.00009704,-0.00009017,0.00002404,0.00002029
 ,0.00005573,0.00004105,0.00017441,-0.00071583,0.00044867,0.00123684,0.
 00072573,0.00747492,0.00064938,-0.00030212,-0.01908365,-0.00163682,-0.
 02184937,-0.00191762,0.00080053,-0.00140111,0.00453046,-0.00370085,0.0
 0022174,-0.00053615,-0.00028043,0.00067160,-0.00006496,0.00017951,-0.0
 0000077,-0.00017933,0.00036809,-0.00031030,0.00001104,-0.00025114,-0.0
 0010092,0.00002007,-0.00003528,0.00005791,0.00678114,0.00196907,0.0356
 9576\\-0.00003008,0.00001264,0.00000503,0.00001576,0.00000278,0.000005
 13,-0.00001000,-0.00001248,0.00003002,0.00000266,0.00000510,-0.0000041
 4,-0.00001683,0.00000111,-0.00000197,0.00002869,0.00001815,-0.00000530
 ,0.00003106,-0.00001516,0.00004745,0.00000269,-0.00000712,0.00001012,0
 .00000466,-0.00000343,0.00001128,-0.00001229,0.00000325,0.00000447,-0.
 00000682,-0.00000432,0.00001122,-0.00001313,0.00000541,-0.00000962,0.0
 0002626,0.00000132,-0.00002762,-0.00001048,-0.00000111,0.00000104,0.00
 000144,0.00004956,-0.00000971,0.00006220,-0.00003954,-0.00001522,-0.00
 001645,-0.00000384,-0.00002391,-0.00001865,-0.00000133,-0.00001144,-0.
 00000002,-0.00000754,-0.00000225,-0.00001244,-0.00000242,-0.00000912,0
 .00001118,0.00000367,-0.00000360,0.00000620,-0.00000823,-0.00001281,0.
 00000625,0.00000092,0.00001299,-0.00005188,0.00000259,-0.00000205\\\@
 The archive entry for this job was punched.


 The mind is not a vessel to be filled but a fire to be kindled.
                                  -- Plutarch
 Job cpu time:       0 days 15 hours 22 minutes 41.6 seconds.
 Elapsed time:       0 days  0 hours 26 minutes 19.0 seconds.
 File lengths (MBytes):  RWF=   1113 Int=      0 D2E=      0 Chk=     28 Scr=      1
 Normal termination of Gaussian 16 at Thu Sep  5 02:22:36 2024.
